# vtk DataFile Version 4.0 
Test_fibre vtk output
ASCII
DATASET UNSTRUCTURED_GRID

POINTS 3 float
0.0 12.0 0.0 
0.0 0.0 12.0 
12.0 0.0 0.0 
POINT_DATA 3
SCALARS alpha float 
LOOKUP_TABLE alpha 
-0.8673269409775152
-0.9060023161968823
-1.7671484458021827
SCALARS beta float 
LOOKUP_TABLE beta 
-1.8962029049071012
-1.7671484458021827
-1.827275316808214
Vectors fn float
0.6264499966827084 -0.7385322099842452 -0.24918117875216356 
0.6093450653897589 -0.7774090069451866 -0.1546383495797251 
0.7009426753432004 -0.6897040087878724 -0.18087823609045953 