# vtk DataFile Version 4.0 
Test_fibre vtk output
ASCII
DATASET POLYDATA

POINTS 8 float 
-2.0 -12.0 -2.0  
-2.0 -12.0 22.0  
22.0 -12.0 22.0  
22.0 -12.0 -2.0  
-2.0 22.0 -2.0  
22.0 22.0 -2.0  
22.0 22.0 22.0  
-2.0 22.0 22.0  
POINT_DATA 8 
SCALARS alpha float  
SCALARS alpha float  
LOOKUP_TABLE alpha  
0.0000000000000000 
0.0000000000000000 
0.0000000000000000 
0.0000000000000000 
0.0000000000000000 
0.0000000000000000 
0.0000000000000000 
0.0000000000000000 
SCALARS beta float  
LOOKUP_TABLE beta  
0.0000000000000000  
-1.5707963267948966 
3.1415926535897932  
1.5707963267948966  
-1.5707963267948966 
0.0000000000000000  
1.5707963267948966  
3.1415926535897932  
Vectors fn float 
0.0 0.0 1.0 
1.0 0.0 0.0 
0.0 0.0 -1.0 
-1.0 0.0 0.0 
1.0 0.0 0.0 
0.0 0.0 1.0 
-1.0 0.0 0.0 
0.0 0.0 -1.0