# vtk DataFile Version 4.2
vtk output
ASCII
DATASET POLYDATA
FIELD FieldData 1
MaterialNames 1 1 string
None

POINTS 1792 float
0.039618 -0.339606 -0.110366 0.056567 -0.286489 -0.160433 0.111742 -0.2718 -0.149165 
0.07916 -0.323612 -0.104261 0.056567 -0.286489 -0.160433 0.074247 -0.211528 -0.210914 
0.147519 -0.199344 -0.194992 0.111742 -0.2718 -0.149165 0.07916 -0.323612 -0.104261 
0.111742 -0.2718 -0.149165 0.162751 -0.252848 -0.128915 0.116596 -0.301718 -0.092093 
0.111742 -0.2718 -0.149165 0.147519 -0.199344 -0.194992 0.217331 -0.181699 -0.167979 
0.162751 -0.252848 -0.128915 -0 -0.37998 -0.066987 0 -0.346214 -0.112207 
0.039618 -0.339606 -0.110366 0.026397 -0.372821 -0.066334 0 -0.346214 -0.112207 
-0 -0.292158 -0.163945 0.056567 -0.286489 -0.160433 0.039618 -0.339606 -0.110366 
-0 -0.292158 -0.163945 -0 -0.215848 -0.216191 0.074247 -0.211528 -0.210914 
0.056567 -0.286489 -0.160433 -0 -0.215848 -0.216191 -0 -0.118256 -0.260652 
0.088326 -0.115784 -0.254 0.074247 -0.211528 -0.210914 0.074247 -0.211528 -0.210914 
0.088326 -0.115784 -0.254 0.176374 -0.107273 -0.235282 0.147519 -0.199344 -0.194992 
0.147519 -0.199344 -0.194992 0.176374 -0.107273 -0.235282 0.264089 -0.090544 -0.205803 
0.217331 -0.181699 -0.167979 0.217331 -0.181699 -0.167979 0.264089 -0.090544 -0.205803 
0.358674 -0.057357 -0.160255 0.273576 -0.165146 -0.126131 0.162751 -0.252848 -0.128915 
0.217331 -0.181699 -0.167979 0.273576 -0.165146 -0.126131 0.201299 -0.234328 -0.096441 
0.116596 -0.301718 -0.092093 0.162751 -0.252848 -0.128915 0.201299 -0.234328 -0.096441 
0.144698 -0.282718 -0.071191 0.0848 -0.331441 -0.059391 0.116596 -0.301718 -0.092093 
0.144698 -0.282718 -0.071191 0.109796 -0.309838 -0.053877 0.054599 -0.355639 -0.064054 
0.07916 -0.323612 -0.104261 0.116596 -0.301718 -0.092093 0.0848 -0.331441 -0.059391 
0.026397 -0.372821 -0.066334 0.039618 -0.339606 -0.110366 0.07916 -0.323612 -0.104261 
0.054599 -0.355639 -0.064054 0.459111 0.015355 0.079253 0.455914 0.009285 0 
0.515329 0.09817 0 0.519226 0.105897 0.074247 0.455914 0.009285 0 
0.459111 0.015355 -0.079253 0.519226 0.105897 -0.074247 0.515329 0.09817 0 
0.519226 0.105897 0.074247 0.515329 0.09817 0 0.560687 0.184201 -0 
0.560454 0.189634 0.066954 0.515329 0.09817 0 0.519226 0.105897 -0.074247 
0.560454 0.189634 -0.066954 0.560687 0.184201 -0 0.358674 -0.057357 0.160255 
0.383219 -0.076079 0.07839 0.459111 0.015355 0.079253 0.452219 0.046697 0.148716 
0.383219 -0.076079 0.07839 0.383278 -0.076828 0 0.455914 0.009285 0 
0.459111 0.015355 0.079253 0.383278 -0.076828 0 0.383219 -0.076079 -0.07839 
0.459111 0.015355 -0.079253 0.455914 0.009285 0 0.383219 -0.076079 -0.07839 
0.358674 -0.057357 -0.160255 0.452219 0.046697 -0.148716 0.459111 0.015355 -0.079253 
0.459111 0.015355 -0.079253 0.452219 0.046697 -0.148716 0.513507 0.135192 -0.137882 
0.519226 0.105897 -0.074247 0.519226 0.105897 -0.074247 0.513507 0.135192 -0.137882 
0.553264 0.211622 -0.122774 0.560454 0.189634 -0.066954 0.560454 0.189634 -0.066954 
0.553264 0.211622 -0.122774 0.57266 0.263784 -0.106381 0.583775 0.26586 -0.062869 
0.560687 0.184201 -0 0.560454 0.189634 -0.066954 0.583775 0.26586 -0.062869 
0.589564 0.267018 -0 0.560454 0.189634 0.066954 0.560687 0.184201 -0 
0.589564 0.267018 -0 0.583775 0.26586 0.062869 0.553264 0.211622 0.122774 
0.560454 0.189634 0.066954 0.583775 0.26586 0.062869 0.57266 0.263784 0.106381 
0.513507 0.135192 0.137882 0.519226 0.105897 0.074247 0.560454 0.189634 0.066954 
0.553264 0.211622 0.122774 0.452219 0.046697 0.148716 0.459111 0.015355 0.079253 
0.519226 0.105897 0.074247 0.513507 0.135192 0.137882 0.217331 -0.181699 0.167979 
0.147519 -0.199344 0.194992 0.111743 -0.2718 0.149165 0.162751 -0.252848 0.128915 
0.147519 -0.199344 0.194992 0.074247 -0.211528 0.210914 0.056567 -0.286489 0.160433 
0.111743 -0.2718 0.149165 0.162751 -0.252848 0.128915 0.111743 -0.2718 0.149165 
0.07916 -0.323612 0.104261 0.116596 -0.301718 0.092093 0.111743 -0.2718 0.149165 
0.056567 -0.286489 0.160433 0.039618 -0.339606 0.110366 0.07916 -0.323612 0.104261 
0.358674 -0.057357 0.160255 0.264089 -0.090544 0.205803 0.217331 -0.181699 0.167979 
0.273576 -0.165146 0.126131 0.264089 -0.090544 0.205803 0.176374 -0.107273 0.235282 
0.147519 -0.199344 0.194992 0.217331 -0.181699 0.167979 0.176374 -0.107273 0.235282 
0.088326 -0.115784 0.254 0.074247 -0.211528 0.210914 0.147519 -0.199344 0.194992 
0.088326 -0.115784 0.254 -0 -0.118256 0.260652 -0 -0.215848 0.216191 
0.074247 -0.211528 0.210914 0.074247 -0.211528 0.210914 -0 -0.215848 0.216191 
-0 -0.292158 0.163945 0.056567 -0.286489 0.160433 0.056567 -0.286489 0.160433 
-0 -0.292158 0.163945 -0 -0.346214 0.112207 0.039618 -0.339606 0.110366 
0.039618 -0.339606 0.110366 -0 -0.346214 0.112207 -0 -0.37998 0.066987 
0.026397 -0.372821 0.066334 0.07916 -0.323612 0.104261 0.039618 -0.339606 0.110366 
0.026397 -0.372821 0.066334 0.054599 -0.355639 0.064054 0.116596 -0.301718 0.092093 
0.07916 -0.323612 0.104261 0.054599 -0.355639 0.064054 0.0848 -0.331441 0.059391 
0.144698 -0.282718 0.071191 0.116596 -0.301718 0.092093 0.0848 -0.331441 0.059391 
0.109796 -0.309838 0.053877 0.201299 -0.234328 0.096441 0.162751 -0.252848 0.128915 
0.116596 -0.301718 0.092093 0.144698 -0.282718 0.071191 0.273576 -0.165146 0.126131 
0.217331 -0.181699 0.167979 0.162751 -0.252848 0.128915 0.201299 -0.234328 0.096441 
0.155485 -0.272238 -0.038589 0.220937 -0.222669 -0.051359 0.224022 -0.215861 0 
0.155939 -0.266226 0 0.220937 -0.222669 -0.051359 0.299667 -0.157675 -0.06641 
0.30216 -0.15233 0 0.224022 -0.215861 0 0.155939 -0.266226 0 
0.224022 -0.215861 0 0.220937 -0.222669 0.051359 0.155485 -0.272238 0.038589 
0.224022 -0.215861 0 0.30216 -0.15233 0 0.299667 -0.157675 0.06641 
0.220937 -0.222669 0.051359 0.109796 -0.309838 -0.053877 0.144698 -0.282718 -0.071191 
0.155485 -0.272238 -0.038589 0.105182 -0.310383 -0.030617 0.144698 -0.282718 -0.071191 
0.201299 -0.234328 -0.096441 0.220937 -0.222669 -0.051359 0.155485 -0.272238 -0.038589 
0.201299 -0.234328 -0.096441 0.273576 -0.165146 -0.126131 0.299667 -0.157675 -0.06641 
0.220937 -0.222669 -0.051359 0.273576 -0.165146 -0.126131 0.358674 -0.057357 -0.160255 
0.383219 -0.076079 -0.07839 0.299667 -0.157675 -0.06641 0.299667 -0.157675 -0.06641 
0.383219 -0.076079 -0.07839 0.383278 -0.076828 0 0.30216 -0.15233 0 
0.30216 -0.15233 0 0.383278 -0.076828 0 0.383219 -0.076079 0.07839 
0.299667 -0.157675 0.06641 0.299667 -0.157675 0.06641 0.383219 -0.076079 0.07839 
0.358674 -0.057357 0.160255 0.273576 -0.165146 0.126131 0.220937 -0.222669 0.051359 
0.299667 -0.157675 0.06641 0.273576 -0.165146 0.126131 0.201299 -0.234328 0.096441 
0.155485 -0.272238 0.038589 0.220937 -0.222669 0.051359 0.201299 -0.234328 0.096441 
0.144698 -0.282718 0.071191 0.105182 -0.310383 0.030617 0.155485 -0.272238 0.038589 
0.144698 -0.282718 0.071191 0.109796 -0.309838 0.053877 0.101982 -0.307722 0 
0.155939 -0.266226 0 0.155485 -0.272238 0.038589 0.105182 -0.310383 0.030617 
0.105182 -0.310383 -0.030617 0.155485 -0.272238 -0.038589 0.155939 -0.266226 0 
0.101982 -0.307722 0 0.391583 0.265795 0.230504 0.420898 0.191296 0.218956 
0.475905 0.256764 0.203653 0.439855 0.325168 0.214781 0.420898 0.191296 0.218956 
0.441325 0.112393 0.194614 0.50013 0.189078 0.180346 0.475905 0.256764 0.203653 
0.439855 0.325168 0.214781 0.475905 0.256764 0.203653 0.518365 0.321625 0.17917 
0.479868 0.385672 0.188104 0.475905 0.256764 0.203653 0.50013 0.189078 0.180346 
0.541524 0.259272 0.159038 0.518365 0.321625 0.17917 0.31781 0.27999 0.244181 
0.334971 0.223155 0.242678 0.391583 0.265795 0.230504 0.348939 0.32454 0.235765 
0.334971 0.223155 0.242678 0.35382 0.140488 0.233527 0.420898 0.191296 0.218956 
0.391583 0.265795 0.230504 0.35382 0.140488 0.233527 0.366393 0.046649 0.210941 
0.441325 0.112393 0.194614 0.420898 0.191296 0.218956 0.366393 0.046649 0.210941 
0.358674 -0.057357 0.160255 0.452219 0.046697 0.148716 0.441325 0.112393 0.194614 
0.441325 0.112393 0.194614 0.452219 0.046697 0.148716 0.513507 0.135192 0.137882 
0.50013 0.189078 0.180346 0.50013 0.189078 0.180346 0.513507 0.135192 0.137882 
0.553264 0.211622 0.122774 0.541524 0.259272 0.159038 0.541524 0.259272 0.159038 
0.553264 0.211622 0.122774 0.57266 0.263784 0.106381 0.568837 0.311346 0.123593 
0.518365 0.321625 0.17917 0.541524 0.259272 0.159038 0.568837 0.311346 0.123593 
0.548727 0.373953 0.137708 0.479868 0.385672 0.188104 0.518365 0.321625 0.17917 
0.548727 0.373953 0.137708 0.509322 0.435463 0.143549 0.425662 0.441877 0.190939 
0.479868 0.385672 0.188104 0.509322 0.435463 0.143549 0.453672 0.48831 0.144407 
0.388751 0.383856 0.219488 0.439855 0.325168 0.214781 0.479868 0.385672 0.188104 
0.425662 0.441877 0.190939 0.348939 0.32454 0.235765 0.391583 0.265795 0.230504 
0.439855 0.325168 0.214781 0.388751 0.383856 0.219488 0.58667 0.337245 -0.068075 
0.567283 0.404859 -0.074962 0.573633 0.414605 -0 0.593387 0.344374 -0 
0.567283 0.404859 -0.074962 0.527427 0.466249 -0.077868 0.533306 0.476325 -0 
0.573633 0.414605 -0 0.593387 0.344374 -0 0.573633 0.414605 -0 
0.567284 0.404859 0.074962 0.58667 0.337245 0.068075 0.573633 0.414605 -0 
0.533306 0.476325 -0 0.527427 0.466249 0.077868 0.567284 0.404859 0.074962 
0.57266 0.263784 -0.106381 0.568837 0.311346 -0.123593 0.58667 0.337245 -0.068075 
0.583775 0.26586 -0.062869 0.568837 0.311346 -0.123593 0.548727 0.373953 -0.137708 
0.567283 0.404859 -0.074962 0.58667 0.337245 -0.068075 0.548727 0.373953 -0.137708 
0.509322 0.435463 -0.143549 0.527427 0.466249 -0.077868 0.567283 0.404859 -0.074962 
0.509322 0.435463 -0.143549 0.453672 0.48831 -0.144407 0.471343 0.517334 -0.077977 
0.527427 0.466249 -0.077868 0.527427 0.466249 -0.077868 0.471343 0.517334 -0.077977 
0.47699 0.526808 -0 0.533306 0.476325 -0 0.533306 0.476325 -0 
0.47699 0.526808 -0 0.471343 0.517334 0.077977 0.527427 0.466249 0.077868 
0.527427 0.466249 0.077868 0.471343 0.517334 0.077977 0.453672 0.48831 0.144407 
0.509322 0.435463 0.143549 0.567284 0.404859 0.074962 0.527427 0.466249 0.077868 
[...]
CELL_DATA 448
FIELD FieldData 2
MaterialIds 1 448 int
0 0 0 0 0 0 0 0 0 
0 0 0 0 0 0 0 0 0 
0 0 0 0 0 0 0 0 0 
0 0 0 0 0 0 0 0 0 
0 0 0 0 0 0 0 0 0 
0 0 0 0 0 0 0 0 0 
0 0 0 0 0 0 0 0 0 
0 0 0 0 0 0 0 0 0 
0 0 0 0 0 0 0 0 0 
0 0 0 0 0 0 0 0 0 
0 0 0 0 0 0 0 0 0 
0 0 0 0 0 0 0 0 0 
0 0 0 0 0 0 0 0 0 
0 0 0 0 0 0 0 0 0 
0 0 0 0 0 0 0 0 0 
0 0 0 0 0 0 0 0 0 
0 0 0 0 0 0 0 0 0 
0 0 0 0 0 0 0 0 0 
0 0 0 0 0 0 0 0 0 
0 0 0 0 0 0 0 0 0 
0 0 0 0 0 0 0 0 0 
0 0 0 0 0 0 0 0 0 
0 0 0 0 0 0 0 0 0 
0 0 0 0 0 0 0 0 0 
0 0 0 0 0 0 0 0 0 
0 0 0 0 0 0 0 0 0 
0 0 0 0 0 0 0 0 0 
0 0 0 0 0 0 0 0 0 
0 0 0 0 0 0 0 0 0 
0 0 0 0 0 0 0 0 0 
0 0 0 0 0 0 0 0 0 
0 0 0 0 0 0 0 0 0 
0 0 0 0 0 0 0 0 0 
0 0 0 0 0 0 0 0 0 
0 0 0 0 0 0 0 0 0 
0 0 0 0 0 0 0 0 0 
0 0 0 0 0 0 0 0 0 
0 0 0 0 0 0 0 0 0 
0 0 0 0 0 0 0 0 0 
0 0 0 0 0 0 0 0 0 
0 0 0 0 0 0 0 0 0 
0 0 0 0 0 0 0 0 0 
0 0 0 0 0 0 0 0 0 
0 0 0 0 0 0 0 0 0 
0 0 0 0 0 0 0 0 0 
0 0 0 0 0 0 0 0 0 
0 0 0 0 0 0 0 0 0 
0 0 0 0 0 0 0 0 0 
0 0 0 0 0 0 0 0 0 
0 0 0 0 0 0 0 
METADATA
INFORMATION 0

GroupIds 1 448 float
0 0 0 0 0 0 0 0 0 
0 0 0 0 0 0 0 0 0 
0 0 0 0 0 0 0 0 0 
0 0 0 0 0 0 0 0 0 
0 0 0 0 0 0 0 0 0 
0 0 0 0 0 0 0 0 0 
0 0 0 0 0 0 0 0 0 
0 0 0 0 0 0 0 0 0 
0 0 0 0 0 0 0 0 0 
0 0 0 0 0 0 0 0 0 
0 0 0 0 0 0 0 0 0 
0 0 0 0 0 0 0 0 0 
0 0 0 0 0 0 0 0 0 
0 0 0 0 0 0 0 0 0 
0 0 0 0 0 0 0 0 0 
0 0 0 0 0 0 0 0 0 
0 0 0 0 0 0 0 0 0 
0 0 0 0 0 0 0 0 0 
0 0 0 0 0 0 0 0 0 
0 0 0 0 0 0 0 0 0 
0 0 0 0 0 0 0 0 0 
0 0 0 0 0 0 0 0 0 
0 0 0 0 0 0 0 0 0 
0 0 0 0 0 0 0 0 0 
0 0 0 0 0 0 0 0 0 
0 0 0 0 0 0 0 0 0 
0 0 0 0 0 0 0 0 0 
0 0 0 0 0 0 0 0 0 
0 0 0 0 0 0 0 0 0 
0 0 0 0 0 0 0 0 0 
0 0 0 0 0 0 0 0 0 
0 0 0 0 0 0 0 0 0 
0 0 0 0 0 0 0 0 0 
0 0 0 0 0 0 0 0 0 
0 0 0 0 0 0 0 0 0 
0 0 0 0 0 0 0 0 0 
0 0 0 0 0 0 0 0 0 
0 0 0 0 0 0 0 0 0 
0 0 0 0 0 0 0 0 0 
0 0 0 0 0 0 0 0 0 
0 0 0 0 0 0 0 0 0 
0 0 0 0 0 0 0 0 0 
0 0 0 0 0 0 0 0 0 
0 0 0 0 0 0 0 0 0 
0 0 0 0 0 0 0 0 0 
0 0 0 0 0 0 0 0 0 
0 0 0 0 0 0 0 0 0 
0 0 0 0 0 0 0 0 0 
0 0 0 0 0 0 0 0 0 
0 0 0 0 0 0 0 
METADATA
INFORMATION 0

POINT_DATA 1792
NORMALS Normals float
0.2809 -0.7622 -0.5831 0.2171 -0.6497 -0.7284 0.3978 -0.6827 -0.6129 
0.4733 -0.7699 -0.4281 0.2171 -0.6497 -0.7284 0.1802 -0.5094 -0.8414 
0.344 -0.5492 -0.7616 0.3978 -0.6827 -0.6129 0.4733 -0.7699 -0.4281 
0.3978 -0.6827 -0.6129 0.5347 -0.7259 -0.4326 0.578 -0.7772 -0.2486 
0.3978 -0.6827 -0.6129 0.344 -0.5492 -0.7616 0.4951 -0.6159 -0.6128 
0.5347 -0.7259 -0.4326 0 -0.8757 -0.4828 0 -0.7617 -0.648 
0.2809 -0.7622 -0.5831 0.3822 -0.8361 -0.3935 0 -0.7617 -0.648 
0 -0.6382 -0.7698 0.2171 -0.6497 -0.7284 0.2809 -0.7622 -0.5831 
0 -0.6382 -0.7698 0 -0.4962 -0.8682 0.1802 -0.5094 -0.8414 
0.2171 -0.6497 -0.7284 0 -0.4962 -0.8682 0 -0.331 -0.9436 
0.1558 -0.3418 -0.9268 0.1802 -0.5094 -0.8414 0.1802 -0.5094 -0.8414 
0.1558 -0.3418 -0.9268 0.2985 -0.3774 -0.8766 0.344 -0.5492 -0.7616 
0.344 -0.5492 -0.7616 0.2985 -0.3774 -0.8766 0.444 -0.4483 -0.7757 
0.4951 -0.6159 -0.6128 0.4951 -0.6159 -0.6128 0.444 -0.4483 -0.7757 
0.6112 -0.546 -0.5729 0.6175 -0.6868 -0.3833 0.5347 -0.7259 -0.4326 
0.4951 -0.6159 -0.6128 0.6175 -0.6868 -0.3833 0.6131 -0.7617 -0.2093 
0.578 -0.7772 -0.2486 0.5347 -0.7259 -0.4326 0.6131 -0.7617 -0.2093 
0.6184 -0.7826 -0.0706 0.6323 -0.7722 -0.0615 0.578 -0.7772 -0.2486 
0.6184 -0.7826 -0.0706 0.6323 -0.7743 0.0215 0.5681 -0.794 -0.2162 
0.4733 -0.7699 -0.4281 0.578 -0.7772 -0.2486 0.6323 -0.7722 -0.0615 
0.3822 -0.8361 -0.3935 0.2809 -0.7622 -0.5831 0.4733 -0.7699 -0.4281 
0.5681 -0.794 -0.2162 0.788 -0.5898 0.1766 0.7991 -0.6012 0 
0.861 -0.5085 0 0.8568 -0.4913 0.1565 0.7991 -0.6012 0 
0.788 -0.5898 -0.1766 0.8568 -0.4913 -0.1565 0.861 -0.5085 0 
0.8568 -0.4913 0.1565 0.861 -0.5085 0 0.9222 -0.3866 0 
0.9183 -0.369 0.1434 0.861 -0.5085 0 0.8568 -0.4913 -0.1565 
0.9183 -0.369 -0.1434 0.9222 -0.3866 0 0.6112 -0.546 0.5729 
0.7238 -0.6693 0.1678 0.788 -0.5898 0.1766 0.6887 -0.4901 0.5342 
0.7238 -0.6693 0.1678 0.7298 -0.6836 0 0.7991 -0.6012 0 
0.788 -0.5898 0.1766 0.7298 -0.6836 0 0.7238 -0.6693 -0.1678 
0.788 -0.5898 -0.1766 0.7991 -0.6012 0 0.7238 -0.6693 -0.1678 
0.6112 -0.546 -0.5729 0.6887 -0.4901 -0.5342 0.788 -0.5898 -0.1766 
0.788 -0.5898 -0.1766 0.6887 -0.4901 -0.5342 0.7807 -0.4029 -0.4776 
0.8568 -0.4913 -0.1565 0.8568 -0.4913 -0.1565 0.7807 -0.4029 -0.4776 
0.8643 -0.2861 -0.4136 0.9183 -0.369 -0.1434 0.9183 -0.369 -0.1434 
0.8643 -0.2861 -0.4136 0.9252 -0.1548 -0.3464 0.9727 -0.1697 -0.1583 
0.9222 -0.3866 0 0.9183 -0.369 -0.1434 0.9727 -0.1697 -0.1583 
0.984 -0.1783 0 0.9183 -0.369 0.1434 0.9222 -0.3866 0 
0.984 -0.1783 0 0.9727 -0.1697 0.1583 0.8643 -0.2861 0.4136 
0.9183 -0.369 0.1434 0.9727 -0.1697 0.1583 0.9252 -0.1548 0.3464 
0.7807 -0.4029 0.4776 0.8568 -0.4913 0.1565 0.9183 -0.369 0.1434 
0.8643 -0.2861 0.4136 0.6887 -0.4901 0.5342 0.788 -0.5898 0.1766 
0.8568 -0.4913 0.1565 0.7807 -0.4029 0.4776 0.4951 -0.6159 0.6128 
0.344 -0.5492 0.7616 0.3978 -0.6827 0.6129 0.5347 -0.7259 0.4326 
0.344 -0.5492 0.7616 0.1802 -0.5094 0.8414 0.2171 -0.6497 0.7284 
0.3978 -0.6827 0.6129 0.5347 -0.7259 0.4326 0.3978 -0.6827 0.6129 
0.4733 -0.7699 0.4281 0.578 -0.7772 0.2486 0.3978 -0.6827 0.6129 
0.2171 -0.6497 0.7284 0.2809 -0.7622 0.5831 0.4733 -0.7699 0.4281 
0.6112 -0.546 0.5729 0.444 -0.4483 0.7757 0.4951 -0.6159 0.6128 
0.6175 -0.6868 0.3833 0.444 -0.4483 0.7757 0.2985 -0.3774 0.8766 
0.344 -0.5492 0.7616 0.4951 -0.6159 0.6128 0.2985 -0.3774 0.8766 
0.1558 -0.3418 0.9268 0.1802 -0.5094 0.8414 0.344 -0.5492 0.7616 
0.1558 -0.3418 0.9268 0 -0.331 0.9436 0 -0.4962 0.8682 
0.1802 -0.5094 0.8414 0.1802 -0.5094 0.8414 0 -0.4962 0.8682 
0 -0.6382 0.7698 0.2171 -0.6497 0.7284 0.2171 -0.6497 0.7284 
0 -0.6382 0.7698 0 -0.7617 0.648 0.2809 -0.7622 0.5831 
0.2809 -0.7622 0.5831 0 -0.7617 0.648 0 -0.8757 0.4828 
0.3822 -0.8361 0.3935 0.4733 -0.7699 0.4281 0.2809 -0.7622 0.5831 
0.3822 -0.8361 0.3935 0.5681 -0.794 0.2162 0.578 -0.7772 0.2486 
0.4733 -0.7699 0.4281 0.5681 -0.794 0.2162 0.6323 -0.7722 0.0615 
0.6184 -0.7826 0.0706 0.578 -0.7772 0.2486 0.6323 -0.7722 0.0615 
0.6323 -0.7743 -0.0215 0.6131 -0.7617 0.2093 0.5347 -0.7259 0.4326 
0.578 -0.7772 0.2486 0.6184 -0.7826 0.0706 0.6175 -0.6868 0.3833 
0.4951 -0.6159 0.6128 0.5347 -0.7259 0.4326 0.6131 -0.7617 0.2093 
0.614 -0.7869 0.0615 0.6271 -0.7788 -0.0112 0.6221 -0.783 0 
0.6085 -0.7935 0 0.6271 -0.7788 -0.0112 0.6689 -0.7362 -0.1028 
0.6655 -0.7464 0 0.6221 -0.783 0 0.6085 -0.7935 0 
0.6221 -0.783 0 0.6271 -0.7788 0.0112 0.614 -0.7869 -0.0615 
0.6221 -0.783 0 0.6655 -0.7464 0 0.6689 -0.7362 0.1028 
0.6271 -0.7788 0.0112 0.6323 -0.7743 0.0215 0.6184 -0.7826 -0.0706 
0.614 -0.7869 0.0615 0.64 -0.7616 0.1018 0.6184 -0.7826 -0.0706 
0.6131 -0.7617 -0.2093 0.6271 -0.7788 -0.0112 0.614 -0.7869 0.0615 
0.6131 -0.7617 -0.2093 0.6175 -0.6868 -0.3833 0.6689 -0.7362 -0.1028 
0.6271 -0.7788 -0.0112 0.6175 -0.6868 -0.3833 0.6112 -0.546 -0.5729 
0.7238 -0.6693 -0.1678 0.6689 -0.7362 -0.1028 0.6689 -0.7362 -0.1028 
0.7238 -0.6693 -0.1678 0.7298 -0.6836 0 0.6655 -0.7464 0 
0.6655 -0.7464 0 0.7298 -0.6836 0 0.7238 -0.6693 0.1678 
0.6689 -0.7362 0.1028 0.6689 -0.7362 0.1028 0.7238 -0.6693 0.1678 
0.6112 -0.546 0.5729 0.6175 -0.6868 0.3833 0.6271 -0.7788 0.0112 
0.6689 -0.7362 0.1028 0.6175 -0.6868 0.3833 0.6131 -0.7617 0.2093 
0.614 -0.7869 -0.0615 0.6271 -0.7788 0.0112 0.6131 -0.7617 0.2093 
0.6184 -0.7826 0.0706 0.64 -0.7616 -0.1018 0.614 -0.7869 -0.0615 
0.6184 -0.7826 0.0706 0.6323 -0.7743 -0.0215 0.645 -0.7642 0 
0.6085 -0.7935 0 0.614 -0.7869 -0.0615 0.64 -0.7616 -0.1018 
0.64 -0.7616 0.1018 0.614 -0.7869 0.0615 0.6085 -0.7935 0 
0.645 -0.7642 0 0.2462 0.0155 0.9691 0.3402 -0.1071 0.9342 
0.4354 -0.0386 0.8993 0.3203 0.1035 0.9416 0.3402 -0.1071 0.9342 
0.5057 -0.2895 0.8126 0.6092 -0.2235 0.7608 0.4354 -0.0386 0.8993 
0.3203 0.1035 0.9416 0.4354 -0.0386 0.8993 0.5908 0.0997 0.8006 
0.46 0.2709 0.8455 0.4354 -0.0386 0.8993 0.6092 -0.2235 0.7608 
0.7342 -0.102 0.6712 0.5908 0.0997 0.8006 0.1723 0.06 0.9832 
0.2163 -0.0046 0.9763 0.2462 0.0155 0.9691 0.1852 0.1037 0.9772 
0.2163 -0.0046 0.9763 0.2948 -0.1135 0.9488 0.3402 -0.1071 0.9342 
0.2462 0.0155 0.9691 0.2948 -0.1135 0.9488 0.4344 -0.2987 0.8498 
0.5057 -0.2895 0.8126 0.3402 -0.1071 0.9342 0.4344 -0.2987 0.8498 
0.6112 -0.546 0.5729 0.6887 -0.4901 0.5342 0.5057 -0.2895 0.8126 
0.5057 -0.2895 0.8126 0.6887 -0.4901 0.5342 0.7807 -0.4029 0.4776 
0.6092 -0.2235 0.7608 0.6092 -0.2235 0.7608 0.7807 -0.4029 0.4776 
0.8643 -0.2861 0.4136 0.7342 -0.102 0.6712 0.7342 -0.102 0.6712 
0.8643 -0.2861 0.4136 0.9252 -0.1548 0.3464 0.8787 0.0418 0.4754 
0.5908 0.0997 0.8006 0.7342 -0.102 0.6712 0.8787 0.0418 0.4754 
0.7694 0.2744 0.5767 0.46 0.2709 0.8455 0.5908 0.0997 0.8006 
0.7694 0.2744 0.5767 0.6268 0.478 0.6154 0.3495 0.4038 0.8454 
0.46 0.2709 0.8455 0.6268 0.478 0.6154 0.4787 0.6293 0.6121 
0.2395 0.2105 0.9478 0.3203 0.1035 0.9416 0.46 0.2709 0.8455 
0.3495 0.4038 0.8454 0.1852 0.1037 0.9772 0.2462 0.0155 0.9691 
0.3203 0.1035 0.9416 0.2395 0.2105 0.9478 0.9691 0.1108 -0.2205 
0.8796 0.3873 -0.2762 0.9087 0.4174 0 0.9927 0.1202 0 
0.8796 0.3873 -0.2762 0.731 0.6133 -0.2992 0.7588 0.6513 0 
0.9087 0.4174 0 0.9927 0.1202 0 0.9087 0.4174 0 
0.8796 0.3873 0.2762 0.9691 0.1108 0.2205 0.9087 0.4174 0 
0.7588 0.6513 0 0.731 0.6133 0.2992 0.8796 0.3873 0.2762 
0.9252 -0.1548 -0.3464 0.8787 0.0418 -0.4754 0.9691 0.1108 -0.2205 
0.9727 -0.1697 -0.1583 0.8787 0.0418 -0.4754 0.7694 0.2744 -0.5767 
0.8796 0.3873 -0.2762 0.9691 0.1108 -0.2205 0.7694 0.2744 -0.5767 
0.6268 0.478 -0.6154 0.731 0.6133 -0.2992 0.8796 0.3873 -0.2762 
0.6268 0.478 -0.6154 0.4787 0.6293 -0.6121 0.5592 0.7733 -0.2987 
0.731 0.6133 -0.2992 0.731 0.6133 -0.2992 0.5592 0.7733 -0.2987 
0.5808 0.814 0 0.7588 0.6513 0 0.7588 0.6513 0 
0.5808 0.814 0 0.5592 0.7733 0.2987 0.731 0.6133 0.2992 
0.731 0.6133 0.2992 0.5592 0.7733 0.2987 0.4787 0.6293 0.6121 
0.6268 0.478 0.6154 0.8796 0.3873 0.2762 0.731 0.6133 0.2992 
0.6268 0.478 0.6154 0.7694 0.2744 0.5767 0.9691 0.1108 0.2205 
0.8796 0.3873 0.2762 0.7694 0.2744 0.5767 0.8787 0.0418 0.4754 
0.9727 -0.1697 0.1583 0.9691 0.1108 0.2205 0.8787 0.0418 0.4754 
0.9252 -0.1548 0.3464 0.984 -0.1783 0 0.9927 0.1202 0 
0.9691 0.1108 0.2205 0.9727 -0.1697 0.1583 0.9727 -0.1697 -0.1583 
0.9691 0.1108 -0.2205 0.9927 0.1202 0 0.984 -0.1783 0 
0.3741 0.8823 -0.2855 0.1638 0.9516 -0.2601 0.1726 0.985 0 
0.3887 0.9214 0 0.1638 0.9516 -0.2601 -0.0789 0.9727 -0.218 
-0.084 0.9965 0 0.1726 0.985 0 0.3887 0.9214 0 
0.1726 0.985 0 0.1638 0.9516 0.2601 0.3741 0.8823 0.2855 
0.1726 0.985 0 -0.084 0.9965 0 -0.0789 0.9727 0.218 
0.1638 0.9516 0.2601 0.4787 0.6293 -0.6121 0.3178 0.7421 -0.59 
0.3741 0.8823 -0.2855 0.5592 0.7733 -0.2987 0.3178 0.7421 -0.59 
0.1227 0.8288 -0.5459 0.1638 0.9516 -0.2601 0.3741 0.8823 -0.2855 
0.1227 0.8288 -0.5459 -0.1032 0.8773 -0.4688 -0.0789 0.9727 -0.218 
0.1638 0.9516 -0.2601 -0.1032 0.8773 -0.4688 -0.313 0.8761 -0.3666 
-0.3486 0.9191 -0.1834 -0.0789 0.9727 -0.218 -0.0789 0.9727 -0.218 
-0.3486 0.9191 -0.1834 -0.363 0.9318 0 -0.084 0.9965 0 
-0.084 0.9965 0 -0.363 0.9318 0 -0.3486 0.9191 0.1834 
-0.0789 0.9727 0.218 -0.0789 0.9727 0.218 -0.3486 0.9191 0.1834 
-0.313 0.8761 0.3666 -0.1032 0.8773 0.4688 0.1638 0.9516 0.2601 
-0.0789 0.9727 0.218 -0.1032 0.8773 0.4688 0.1227 0.8288 0.5459 
0.3741 0.8823 0.2855 0.1638 0.9516 0.2601 0.1227 0.8288 0.5459 
0.3178 0.7421 0.59 0.5592 0.7733 0.2987 0.3741 0.8823 0.2855 
0.3178 0.7421 0.59 0.4787 0.6293 0.6121 0.5808 0.814 0 
0.3887 0.9214 0 0.3741 0.8823 0.2855 0.5592 0.7733 0.2987 
0.5592 0.7733 -0.2987 0.3741 0.8823 -0.2855 0.3887 0.9214 0 
0.5808 0.814 0 0.1137 0.1761 -0.9778 0.0033 0.2856 -0.9583 
-0.0085 0.42 -0.9074 0.1447 0.3041 -0.9416 0.0033 0.2856 -0.9583 
-0.1473 0.4865 -0.8612 -0.2306 0.5751 -0.7849 -0.0085 0.42 -0.9074 
0.1447 0.3041 -0.9416 -0.0085 0.42 -0.9074 0.0478 0.621 -0.7823 
0.2243 0.5138 -0.828 -0.0085 0.42 -0.9074 -0.2306 0.5751 -0.7849 
-0.1843 0.717 -0.6723 0.0478 0.621 -0.7823 0.1723 0.06 -0.9832 
0.1347 0.1049 -0.9853 0.1137 0.1761 -0.9778 0.1852 0.1037 -0.9772 
0.1347 0.1049 -0.9853 0.0745 0.1929 -0.9784 0.0033 0.2856 -0.9583 
0.1137 0.1761 -0.9778 0.0745 0.1929 -0.9784 -0.0218 0.3582 -0.9334 
-0.1473 0.4865 -0.8612 0.0033 0.2856 -0.9583 -0.0218 0.3582 -0.9334 
0 0.6205 -0.7842 -0.3293 0.7413 -0.5848 -0.1473 0.4865 -0.8612 
-0.1473 0.4865 -0.8612 -0.3293 0.7413 -0.5848 -0.4651 0.7235 -0.5101 
-0.2306 0.5751 -0.7849 -0.2306 0.5751 -0.7849 -0.4651 0.7235 -0.5101 
-0.4198 0.7908 -0.4453 -0.1843 0.717 -0.6723 -0.1843 0.717 -0.6723 
-0.4198 0.7908 -0.4453 -0.313 0.8761 -0.3666 -0.1032 0.8773 -0.4688 
0.0478 0.621 -0.7823 -0.1843 0.717 -0.6723 -0.1032 0.8773 -0.4688 
0.1227 0.8288 -0.5459 0.2243 0.5138 -0.828 0.0478 0.621 -0.7823 
0.1227 0.8288 -0.5459 0.3178 0.7421 -0.59 0.3495 0.4038 -0.8454 
0.2243 0.5138 -0.828 0.3178 0.7421 -0.59 0.4787 0.6293 -0.6121 
0.2395 0.2105 -0.9478 0.1447 0.3041 -0.9416 0.2243 0.5138 -0.828 
0.3495 0.4038 -0.8454 0.1852 0.1037 -0.9772 0.1137 0.1761 -0.9778 
0.1447 0.3041 -0.9416 0.2395 0.2105 -0.9478 0.5057 -0.2895 -0.8126 
0.3402 -0.1071 -0.9342 0.4354 -0.0386 -0.8993 0.6092 -0.2235 -0.7608 
0.3402 -0.1071 -0.9342 0.2462 0.0155 -0.9691 0.3203 0.1035 -0.9416 
0.4354 -0.0386 -0.8993 0.6092 -0.2235 -0.7608 0.4354 -0.0386 -0.8993 
0.5908 0.0997 -0.8006 0.7342 -0.102 -0.6712 0.4354 -0.0386 -0.8993 
0.3203 0.1035 -0.9416 0.46 0.2709 -0.8455 0.5908 0.0997 -0.8006 
0.6112 -0.546 -0.5729 0.4344 -0.2987 -0.8498 0.5057 -0.2895 -0.8126 
0.6887 -0.4901 -0.5342 0.4344 -0.2987 -0.8498 0.2948 -0.1135 -0.9488 
0.3402 -0.1071 -0.9342 0.5057 -0.2895 -0.8126 0.2948 -0.1135 -0.9488 
0.2163 -0.0046 -0.9763 0.2462 0.0155 -0.9691 0.3402 -0.1071 -0.9342 
0.2163 -0.0046 -0.9763 0.1723 0.06 -0.9832 0.1852 0.1037 -0.9772 
0.2462 0.0155 -0.9691 0.2462 0.0155 -0.9691 0.1852 0.1037 -0.9772 
0.2395 0.2105 -0.9478 0.3203 0.1035 -0.9416 0.3203 0.1035 -0.9416 
0.2395 0.2105 -0.9478 0.3495 0.4038 -0.8454 0.46 0.2709 -0.8455 
0.46 0.2709 -0.8455 0.3495 0.4038 -0.8454 0.4787 0.6293 -0.6121 
0.6268 0.478 -0.6154 0.5908 0.0997 -0.8006 0.46 0.2709 -0.8455 
0.6268 0.478 -0.6154 0.7694 0.2744 -0.5767 0.7342 -0.102 -0.6712 
0.5908 0.0997 -0.8006 0.7694 0.2744 -0.5767 0.8787 0.0418 -0.4754 
0.8643 -0.2861 -0.4136 0.7342 -0.102 -0.6712 0.8787 0.0418 -0.4754 
0.9252 -0.1548 -0.3464 0.7807 -0.4029 -0.4776 0.6092 -0.2235 -0.7608 
0.7342 -0.102 -0.6712 0.8643 -0.2861 -0.4136 0.6887 -0.4901 -0.5342 
0.5057 -0.2895 -0.8126 0.6092 -0.2235 -0.7608 0.7807 -0.4029 -0.4776 
-0.4559 0.8627 -0.2188 -0.4773 0.8787 0 -0.6237 0.7816 0 
-0.5942 0.7771 -0.2076 -0.4773 0.8787 0 -0.4559 0.8627 0.2188 
-0.5942 0.7771 0.2076 -0.6237 0.7816 0 -0.5942 0.7771 -0.2076 
-0.6237 0.7816 0 -0.5604 0.8282 0 -0.5381 0.821 -0.1907 
-0.6237 0.7816 0 -0.5942 0.7771 0.2076 -0.5381 0.821 0.1907 
-0.5604 0.8282 0 0 0.6205 -0.7842 0 0.9687 -0.2481 
-0.4559 0.8627 -0.2188 -0.3293 0.7413 -0.5848 0 0.9687 -0.2481 
0 1 0 -0.4773 0.8787 0 -0.4559 0.8627 -0.2188 
0 1 0 0 0.9687 0.2481 -0.4559 0.8627 0.2188 
-0.4773 0.8787 0 0 0.9687 0.2481 0 0.6205 0.7842 
-0.3293 0.7413 0.5848 -0.4559 0.8627 0.2188 -0.4559 0.8627 0.2188 
-0.3293 0.7413 0.5848 -0.4651 0.7235 0.5101 -0.5942 0.7771 0.2076 
-0.5942 0.7771 0.2076 -0.4651 0.7235 0.5101 -0.4198 0.7908 0.4453 
-0.5381 0.821 0.1907 -0.5381 0.821 0.1907 -0.4198 0.7908 0.4453 
-0.313 0.8761 0.3666 -0.3486 0.9191 0.1834 -0.5604 0.8282 0 
-0.5381 0.821 0.1907 -0.3486 0.9191 0.1834 -0.363 0.9318 0 
-0.5381 0.821 -0.1907 -0.5604 0.8282 0 -0.363 0.9318 0 
-0.3486 0.9191 -0.1834 -0.4198 0.7908 -0.4453 -0.5381 0.821 -0.1907 
-0.3486 0.9191 -0.1834 -0.313 0.8761 -0.3666 -0.4651 0.7235 -0.5101 
-0.5942 0.7771 -0.2076 -0.5381 0.821 -0.1907 -0.4198 0.7908 -0.4453 
-0.3293 0.7413 -0.5848 -0.4559 0.8627 -0.2188 -0.5942 0.7771 -0.2076 
-0.4651 0.7235 -0.5101 -0.1473 0.4865 0.8612 0.0033 0.2856 0.9583 
-0.0085 0.42 0.9074 -0.2306 0.5751 0.7849 0.0033 0.2856 0.9583 
0.1137 0.1761 0.9778 0.1447 0.3041 0.9416 -0.0085 0.42 0.9074 
-0.2306 0.5751 0.7849 -0.0085 0.42 0.9074 0.0478 0.621 0.7823 
-0.1843 0.717 0.6723 -0.0085 0.42 0.9074 0.1447 0.3041 0.9416 
0.2243 0.5138 0.828 0.0478 0.621 0.7823 0 0.6205 0.7842 
-0.0218 0.3582 0.9334 -0.1473 0.4865 0.8612 -0.3293 0.7413 0.5848 
-0.0218 0.3582 0.9334 0.0745 0.1929 0.9784 0.0033 0.2856 0.9583 
-0.1473 0.4865 0.8612 0.0745 0.1929 0.9784 0.1347 0.1049 0.9853 
0.1137 0.1761 0.9778 0.0033 0.2856 0.9583 0.1347 0.1049 0.9853 
0.1723 0.06 0.9832 0.1852 0.1037 0.9772 0.1137 0.1761 0.9778 
0.1137 0.1761 0.9778 0.1852 0.1037 0.9772 0.2395 0.2105 0.9478 
0.1447 0.3041 0.9416 0.1447 0.3041 0.9416 0.2395 0.2105 0.9478 
0.3495 0.4038 0.8454 0.2243 0.5138 0.828 0.2243 0.5138 0.828 
0.3495 0.4038 0.8454 0.4787 0.6293 0.6121 0.3178 0.7421 0.59 
0.0478 0.621 0.7823 0.2243 0.5138 0.828 0.3178 0.7421 0.59 
0.1227 0.8288 0.5459 -0.1843 0.717 0.6723 0.0478 0.621 0.7823 
0.1227 0.8288 0.5459 -0.1032 0.8773 0.4688 -0.4198 0.7908 0.4453 
-0.1843 0.717 0.6723 -0.1032 0.8773 0.4688 -0.313 0.8761 0.3666 
-0.4651 0.7235 0.5101 -0.2306 0.5751 0.7849 -0.1843 0.717 0.6723 
-0.4198 0.7908 0.4453 -0.3293 0.7413 0.5848 -0.1473 0.4865 0.8612 
-0.2306 0.5751 0.7849 -0.4651 0.7235 0.5101 0.4816 -0.8637 -0.1485 
0.6525 -0.7574 -0.0219 0.687 -0.7266 0 0.526 -0.8504 0 
0.6525 -0.7574 -0.0219 0.6746 -0.7348 0.071 0.6931 -0.7208 0 
0.687 -0.7266 0 0.526 -0.8504 0 0.687 -0.7266 0 
0.6525 -0.7574 0.0219 0.4816 -0.8637 0.1485 0.687 -0.7266 0 
0.6931 -0.7208 0 0.6746 -0.7348 -0.071 0.6525 -0.7574 0.0219 
0 -0.8757 -0.4828 0.3822 -0.8361 -0.3935 0.4816 -0.8637 -0.1485 
0 -0.9776 -0.2105 0.3822 -0.8361 -0.3935 0.5681 -0.794 -0.2162 
0.6525 -0.7574 -0.0219 0.4816 -0.8637 -0.1485 0.5681 -0.794 -0.2162 
0.6323 -0.7722 -0.0615 0.6746 -0.7348 0.071 0.6525 -0.7574 -0.0219 
0.6323 -0.7722 -0.0615 0.6323 -0.7743 0.0215 0.64 -0.7616 0.1018 
0.6746 -0.7348 0.071 0.6746 -0.7348 0.071 0.64 -0.7616 0.1018 
0.645 -0.7642 0 0.6931 -0.7208 0 0.6931 -0.7208 0 
0.645 -0.7642 0 0.64 -0.7616 -0.1018 0.6746 -0.7348 -0.071 
0.6746 -0.7348 -0.071 0.64 -0.7616 -0.1018 0.6323 -0.7743 -0.0215 
0.6323 -0.7722 0.0615 0.6525 -0.7574 0.0219 0.6746 -0.7348 -0.071 
0.6323 -0.7722 0.0615 0.5681 -0.794 0.2162 0.4816 -0.8637 0.1485 
0.6525 -0.7574 0.0219 0.5681 -0.794 0.2162 0.3822 -0.8361 0.3935 
0 -0.9776 0.2105 0.4816 -0.8637 0.1485 0.3822 -0.8361 0.3935 
0 -0.8757 0.4828 0 -1 0 0.526 -0.8504 0 
0.4816 -0.8637 0.1485 0 -0.9776 0.2105 0 -0.9776 -0.2105 
0.4816 -0.8637 -0.1485 0.526 -0.8504 0 0 -1 0 
0.3547 -0.2492 -0.9012 0.2496 -0.1946 -0.9485 0.2 -0.0362 -0.9791 
0.2612 -0.0797 -0.962 0.2496 -0.1946 -0.9485 0.1344 -0.1644 -0.9772 
0.1083 0.0013 -0.9941 0.2 -0.0362 -0.9791 0.2612 -0.0797 -0.962 
0.2 -0.0362 -0.9791 0.1458 0.0929 -0.9849 0.193 0.0326 -0.9806 
0.2 -0.0362 -0.9791 0.1083 0.0013 -0.9941 0.0588 0.1718 -0.9834 
0.1458 0.0929 -0.9849 0.6112 -0.546 -0.5729 0.444 -0.4483 -0.7757 
0.3547 -0.2492 -0.9012 0.4344 -0.2987 -0.8498 0.444 -0.4483 -0.7757 
0.2985 -0.3774 -0.8766 0.2496 -0.1946 -0.9485 0.3547 -0.2492 -0.9012 
0.2985 -0.3774 -0.8766 0.1558 -0.3418 -0.9268 0.1344 -0.1644 -0.9772 
0.2496 -0.1946 -0.9485 0.1558 -0.3418 -0.9268 0 -0.331 -0.9436 
0 -0.1538 -0.9881 0.1344 -0.1644 -0.9772 0.1344 -0.1644 -0.9772 
0 -0.1538 -0.9881 0 0.018 -0.9998 0.1083 0.0013 -0.9941 
0.1083 0.0013 -0.9941 0 0.018 -0.9998 0 0.22 -0.9755 
0.0588 0.1718 -0.9834 0.0588 0.1718 -0.9834 0 0.22 -0.9755 
0 0.6205 -0.7842 -0.0218 0.3582 -0.9334 0.1458 0.0929 -0.9849 
0.0588 0.1718 -0.9834 -0.0218 0.3582 -0.9334 0.0745 0.1929 -0.9784 
0.193 0.0326 -0.9806 0.1458 0.0929 -0.9849 0.0745 0.1929 -0.9784 
0.1347 0.1049 -0.9853 0.2163 -0.0046 -0.9763 0.193 0.0326 -0.9806 
0.1347 0.1049 -0.9853 0.1723 0.06 -0.9832 0.2948 -0.1135 -0.9488 
0.2612 -0.0797 -0.962 0.193 0.0326 -0.9806 0.2163 -0.0046 -0.9763 
0.4344 -0.2987 -0.8498 0.3547 -0.2492 -0.9012 0.2612 -0.0797 -0.962 
0.2948 -0.1135 -0.9488 0.1344 -0.1644 0.9772 0.2496 -0.1946 0.9485 
0.2 -0.0362 0.9791 0.1083 0.0013 0.9941 0.2496 -0.1946 0.9485 
0.3547 -0.2492 0.9012 0.2612 -0.0797 0.962 0.2 -0.0362 0.9791 