# vtk DataFile Version 4.2
vtk output
ASCII
DATASET POLYDATA
FIELD FieldData 1
MaterialNames 1 1 string
None

POINTS 1792 float
0.03464 -0.278929 -0.0965 0.048718 -0.226843 -0.138171 0.096052 -0.213504 -0.12822 
0.068958 -0.263432 -0.090825 0.048718 -0.226843 -0.138171 0.063088 -0.158186 -0.179213 
0.125241 -0.14759 -0.165546 0.096052 -0.213504 -0.12822 0.068958 -0.263432 -0.090825 
0.096052 -0.213504 -0.12822 0.139565 -0.196401 -0.110549 0.101225 -0.243041 -0.079952 
0.096052 -0.213504 -0.12822 0.125241 -0.14759 -0.165546 0.184361 -0.132385 -0.142496 
0.139565 -0.196401 -0.110549 -0 -0.321474 -0.059498 0 -0.285279 -0.098242 
0.03464 -0.278929 -0.0965 0.023405 -0.314313 -0.058815 0 -0.285279 -0.098242 
-0 -0.232065 -0.141324 0.048718 -0.226843 -0.138171 0.03464 -0.278929 -0.0965 
-0 -0.232065 -0.141324 -0 -0.162004 -0.183785 0.063088 -0.158186 -0.179213 
0.048718 -0.226843 -0.138171 -0 -0.162004 -0.183785 -0 -0.07687 -0.21942 
0.074343 -0.074757 -0.213789 0.063088 -0.158186 -0.179213 0.063088 -0.158186 -0.179213 
0.074343 -0.074757 -0.213789 0.148411 -0.067536 -0.19798 0.125241 -0.14759 -0.165546 
0.125241 -0.14759 -0.165546 0.148411 -0.067536 -0.19798 0.222188 -0.053431 -0.173149 
0.184361 -0.132385 -0.142496 0.184361 -0.132385 -0.142496 0.222188 -0.053431 -0.173149 
0.301887 -0.025577 -0.134882 0.232106 -0.11838 -0.107011 0.139565 -0.196401 -0.110549 
0.184361 -0.132385 -0.142496 0.232106 -0.11838 -0.107011 0.172608 -0.180496 -0.082696 
0.101225 -0.243041 -0.079952 0.139565 -0.196401 -0.110549 0.172608 -0.180496 -0.082696 
0.12534 -0.225713 -0.061666 0.074375 -0.27307 -0.05209 0.101225 -0.243041 -0.079952 
0.12534 -0.225713 -0.061666 0.095882 -0.252405 -0.04705 0.048159 -0.29678 -0.056498 
0.068958 -0.263432 -0.090825 0.101225 -0.243041 -0.079952 0.074375 -0.27307 -0.05209 
0.023405 -0.314313 -0.058815 0.03464 -0.278929 -0.0965 0.068958 -0.263432 -0.090825 
0.048159 -0.29678 -0.056498 0.387365 0.03536 0.066868 0.38716 0.029505 0 
0.436738 0.105063 -0 0.437572 0.111789 0.06257 0.38716 0.029505 0 
0.387365 0.03536 -0.066868 0.437572 0.111789 -0.06257 0.436738 0.105063 -0 
0.437572 0.111789 0.06257 0.436738 0.105063 -0 0.473345 0.17784 -0 
0.471729 0.182309 0.056355 0.436738 0.105063 -0 0.437572 0.111789 -0.06257 
0.471729 0.182309 -0.056355 0.473345 0.17784 -0 0.301887 -0.025578 0.134882 
0.32417 -0.042266 0.066311 0.387365 0.03536 0.066868 0.379938 0.062148 0.124946 
0.32417 -0.042266 0.066311 0.32646 -0.044186 0 0.38716 0.029505 0 
0.387365 0.03536 0.066868 0.32646 -0.044186 0 0.32417 -0.042266 -0.066311 
0.387365 0.03536 -0.066868 0.38716 0.029505 0 0.32417 -0.042266 -0.066311 
0.301887 -0.025577 -0.134882 0.379938 0.062148 -0.124946 0.387365 0.03536 -0.066868 
0.387365 0.03536 -0.066868 0.379938 0.062148 -0.124946 0.431242 0.136501 -0.115793 
0.437572 0.111789 -0.06257 0.437572 0.111789 -0.06257 0.431242 0.136501 -0.115793 
0.464486 0.200669 -0.103073 0.471729 0.182309 -0.056355 0.471729 0.182309 -0.056355 
0.464486 0.200669 -0.103073 0.480623 0.244431 -0.089284 0.490272 0.24624 -0.052799 
0.473345 0.17784 -0 0.471729 0.182309 -0.056355 0.490272 0.24624 -0.052799 
0.495242 0.247236 -0 0.471729 0.182309 0.056355 0.473345 0.17784 -0 
0.495242 0.247236 -0 0.490272 0.24624 0.052799 0.464486 0.200669 0.103073 
0.471729 0.182309 0.056355 0.490272 0.24624 0.052799 0.480623 0.244431 0.089284 
0.431242 0.136501 0.115793 0.437572 0.111789 0.06257 0.471729 0.182309 0.056355 
0.464486 0.200669 0.103073 0.379938 0.062148 0.124946 0.387365 0.03536 0.066868 
0.437572 0.111789 0.06257 0.431242 0.136501 0.115793 0.184361 -0.132385 0.142496 
0.125241 -0.14759 0.165546 0.096052 -0.213504 0.12822 0.139565 -0.196401 0.110549 
0.125241 -0.14759 0.165546 0.063088 -0.158186 0.179213 0.048718 -0.226843 0.138171 
0.096052 -0.213504 0.12822 0.139565 -0.196401 0.110549 0.096052 -0.213504 0.12822 
0.068958 -0.263432 0.090825 0.101225 -0.243041 0.079952 0.096052 -0.213504 0.12822 
0.048718 -0.226843 0.138171 0.03464 -0.278929 0.0965 0.068958 -0.263432 0.090825 
0.301887 -0.025578 0.134882 0.222188 -0.053431 0.173149 0.184361 -0.132385 0.142496 
0.232106 -0.11838 0.107011 0.222188 -0.053431 0.173149 0.148411 -0.067536 0.19798 
0.125241 -0.14759 0.165546 0.184361 -0.132385 0.142496 0.148411 -0.067536 0.19798 
0.074343 -0.074757 0.213789 0.063088 -0.158186 0.179213 0.125241 -0.14759 0.165546 
0.074343 -0.074757 0.213789 -0 -0.07687 0.21942 -0 -0.162004 0.183785 
0.063088 -0.158186 0.179213 0.063088 -0.158186 0.179213 -0 -0.162004 0.183785 
-0 -0.232065 0.141324 0.048718 -0.226843 0.138171 0.048718 -0.226843 0.138171 
-0 -0.232065 0.141324 -0 -0.285279 0.098242 0.03464 -0.278929 0.0965 
0.03464 -0.278929 0.0965 -0 -0.285279 0.098242 -0 -0.321474 0.059498 
0.023405 -0.314313 0.058815 0.068958 -0.263432 0.090825 0.03464 -0.278929 0.0965 
0.023405 -0.314313 0.058815 0.048159 -0.29678 0.056498 0.101225 -0.243041 0.079952 
0.068958 -0.263432 0.090825 0.048159 -0.29678 0.056498 0.074375 -0.27307 0.05209 
0.12534 -0.225713 0.061666 0.101225 -0.243041 0.079952 0.074375 -0.27307 0.05209 
0.095882 -0.252405 0.04705 0.172608 -0.180496 0.082696 0.139565 -0.196401 0.110549 
0.101225 -0.243041 0.079952 0.12534 -0.225713 0.061666 0.232106 -0.11838 0.107011 
0.184361 -0.132385 0.142496 0.139565 -0.196401 0.110549 0.172608 -0.180496 0.082696 
0.13491 -0.217242 -0.033482 0.189881 -0.171217 -0.044139 0.193438 -0.166818 0 
0.135867 -0.213503 0 0.189881 -0.171217 -0.044139 0.2552 -0.113004 -0.056556 
0.259008 -0.110102 0 0.193438 -0.166818 0 0.135867 -0.213503 0 
0.193438 -0.166818 0 0.189881 -0.171217 0.044139 0.13491 -0.217242 0.033482 
0.193438 -0.166818 0 0.259008 -0.110102 0 0.2552 -0.113004 0.056556 
0.189881 -0.171217 0.044139 0.095882 -0.252405 -0.04705 0.12534 -0.225713 -0.061666 
0.13491 -0.217242 -0.033482 0.092146 -0.254147 -0.026823 0.12534 -0.225713 -0.061666 
0.172608 -0.180496 -0.082696 0.189881 -0.171217 -0.044139 0.13491 -0.217242 -0.033482 
0.172608 -0.180496 -0.082696 0.232106 -0.11838 -0.107011 0.2552 -0.113004 -0.056556 
0.189881 -0.171217 -0.044139 0.232106 -0.11838 -0.107011 0.301887 -0.025577 -0.134882 
0.32417 -0.042266 -0.066311 0.2552 -0.113004 -0.056556 0.2552 -0.113004 -0.056556 
0.32417 -0.042266 -0.066311 0.32646 -0.044186 0 0.259008 -0.110102 0 
0.259008 -0.110102 0 0.32646 -0.044186 0 0.32417 -0.042266 0.066311 
0.2552 -0.113004 0.056556 0.2552 -0.113004 0.056556 0.32417 -0.042266 0.066311 
0.301887 -0.025578 0.134882 0.232106 -0.11838 0.107011 0.189881 -0.171217 0.044139 
0.2552 -0.113004 0.056556 0.232106 -0.11838 0.107011 0.172608 -0.180496 0.082696 
0.13491 -0.217242 0.033482 0.189881 -0.171217 0.044139 0.172608 -0.180496 0.082696 
0.12534 -0.225713 0.061666 0.092146 -0.254147 0.026823 0.13491 -0.217242 0.033482 
0.12534 -0.225713 0.061666 0.095882 -0.252405 0.04705 0.089695 -0.253373 0 
0.135867 -0.213503 0 0.13491 -0.217242 0.033482 0.092146 -0.254147 0.026823 
0.092146 -0.254147 -0.026823 0.13491 -0.217242 -0.033482 0.135867 -0.213503 0 
0.089695 -0.253373 0 0.330074 0.246564 0.194297 0.353683 0.183642 0.18399 
0.399749 0.238618 0.171064 0.370551 0.296523 0.18094 0.353683 0.183642 0.18399 
0.370144 0.117388 0.163224 0.419464 0.181705 0.151258 0.399749 0.238618 0.171064 
0.370551 0.296523 0.18094 0.399749 0.238618 0.171064 0.435316 0.293065 0.150465 
0.404263 0.347496 0.158467 0.399749 0.238618 0.171064 0.419464 0.181705 0.151258 
0.454181 0.240578 0.133387 0.435316 0.293065 0.150465 0.269464 0.259207 0.207036 
0.282756 0.210717 0.204849 0.330074 0.246564 0.194297 0.295834 0.296967 0.199884 
0.282756 0.210717 0.204849 0.297487 0.140946 0.196346 0.353683 0.183642 0.18399 
0.330074 0.246564 0.194297 0.297487 0.140946 0.196346 0.307297 0.062249 0.176918 
0.370144 0.117388 0.163224 0.353683 0.183642 0.18399 0.307297 0.062249 0.176918 
0.301887 -0.025578 0.134882 0.379938 0.062148 0.124946 0.370144 0.117388 0.163224 
0.370144 0.117388 0.163224 0.379938 0.062148 0.124946 0.431242 0.136501 0.115793 
0.419464 0.181705 0.151258 0.419464 0.181705 0.151258 0.431242 0.136501 0.115793 
0.464486 0.200669 0.103073 0.454181 0.240578 0.133387 0.454181 0.240578 0.133387 
0.464486 0.200669 0.103073 0.480623 0.244431 0.089284 0.477089 0.284253 0.103658 
0.435316 0.293065 0.150465 0.454181 0.240578 0.133387 0.477089 0.284253 0.103658 
0.460779 0.336996 0.115637 0.404263 0.347496 0.158467 0.435316 0.293065 0.150465 
0.460779 0.336996 0.115637 0.429325 0.389585 0.121002 0.360732 0.396342 0.161813 
0.404263 0.347496 0.158467 0.429325 0.389585 0.121002 0.384865 0.435994 0.122505 
0.329449 0.34717 0.186006 0.370551 0.296523 0.18094 0.404263 0.347496 0.158467 
0.360732 0.396342 0.161813 0.295834 0.296967 0.199884 0.330074 0.246564 0.194297 
0.370551 0.296523 0.18094 0.329449 0.34717 0.186006 0.492046 0.305975 -0.057095 
0.476422 0.362976 -0.062955 0.481797 0.371181 -0 0.49768 0.311954 -0 
0.476422 0.362976 -0.062955 0.444696 0.415603 -0.065654 0.449744 0.424155 -0 
0.481797 0.371181 -0 0.49768 0.311954 -0 0.481797 0.371181 -0 
0.476422 0.362976 0.062955 0.492046 0.305975 0.057095 0.481797 0.371181 -0 
0.449744 0.424155 -0 0.444696 0.415603 0.065654 0.476422 0.362976 0.062955 
0.480623 0.244431 -0.089284 0.477089 0.284253 -0.103659 0.492046 0.305975 -0.057095 
0.490272 0.24624 -0.052799 0.477089 0.284253 -0.103659 0.460779 0.336996 -0.115637 
0.476422 0.362976 -0.062955 0.492046 0.305975 -0.057095 0.460779 0.336996 -0.115637 
0.429325 0.389585 -0.121002 0.444696 0.415603 -0.065654 0.476422 0.362976 -0.062955 
0.429325 0.389585 -0.121002 0.384865 0.435994 -0.122505 0.399952 0.460691 -0.066166 
0.444696 0.415603 -0.065654 0.444696 0.415603 -0.065654 0.399952 0.460691 -0.066166 
0.404848 0.468814 -0 0.449744 0.424155 -0 0.449744 0.424155 -0 
0.404848 0.468814 -0 0.399952 0.460691 0.066166 0.444696 0.415603 0.065654 
0.444696 0.415603 0.065654 0.399952 0.460691 0.066166 0.384865 0.435994 0.122505 
0.429325 0.389585 0.121002 0.476422 0.362976 0.062955 0.444696 0.415603 0.065654 
[...]
CELL_DATA 448
FIELD FieldData 2
MaterialIds 1 448 int
0 0 0 0 0 0 0 0 0 
0 0 0 0 0 0 0 0 0 
0 0 0 0 0 0 0 0 0 
0 0 0 0 0 0 0 0 0 
0 0 0 0 0 0 0 0 0 
0 0 0 0 0 0 0 0 0 
0 0 0 0 0 0 0 0 0 
0 0 0 0 0 0 0 0 0 
0 0 0 0 0 0 0 0 0 
0 0 0 0 0 0 0 0 0 
0 0 0 0 0 0 0 0 0 
0 0 0 0 0 0 0 0 0 
0 0 0 0 0 0 0 0 0 
0 0 0 0 0 0 0 0 0 
0 0 0 0 0 0 0 0 0 
0 0 0 0 0 0 0 0 0 
0 0 0 0 0 0 0 0 0 
0 0 0 0 0 0 0 0 0 
0 0 0 0 0 0 0 0 0 
0 0 0 0 0 0 0 0 0 
0 0 0 0 0 0 0 0 0 
0 0 0 0 0 0 0 0 0 
0 0 0 0 0 0 0 0 0 
0 0 0 0 0 0 0 0 0 
0 0 0 0 0 0 0 0 0 
0 0 0 0 0 0 0 0 0 
0 0 0 0 0 0 0 0 0 
0 0 0 0 0 0 0 0 0 
0 0 0 0 0 0 0 0 0 
0 0 0 0 0 0 0 0 0 
0 0 0 0 0 0 0 0 0 
0 0 0 0 0 0 0 0 0 
0 0 0 0 0 0 0 0 0 
0 0 0 0 0 0 0 0 0 
0 0 0 0 0 0 0 0 0 
0 0 0 0 0 0 0 0 0 
0 0 0 0 0 0 0 0 0 
0 0 0 0 0 0 0 0 0 
0 0 0 0 0 0 0 0 0 
0 0 0 0 0 0 0 0 0 
0 0 0 0 0 0 0 0 0 
0 0 0 0 0 0 0 0 0 
0 0 0 0 0 0 0 0 0 
0 0 0 0 0 0 0 0 0 
0 0 0 0 0 0 0 0 0 
0 0 0 0 0 0 0 0 0 
0 0 0 0 0 0 0 0 0 
0 0 0 0 0 0 0 0 0 
0 0 0 0 0 0 0 0 0 
0 0 0 0 0 0 0 
METADATA
INFORMATION 0

GroupIds 1 448 float
0 0 0 0 0 0 0 0 0 
0 0 0 0 0 0 0 0 0 
0 0 0 0 0 0 0 0 0 
0 0 0 0 0 0 0 0 0 
0 0 0 0 0 0 0 0 0 
0 0 0 0 0 0 0 0 0 
0 0 0 0 0 0 0 0 0 
0 0 0 0 0 0 0 0 0 
0 0 0 0 0 0 0 0 0 
0 0 0 0 0 0 0 0 0 
0 0 0 0 0 0 0 0 0 
0 0 0 0 0 0 0 0 0 
0 0 0 0 0 0 0 0 0 
0 0 0 0 0 0 0 0 0 
0 0 0 0 0 0 0 0 0 
0 0 0 0 0 0 0 0 0 
0 0 0 0 0 0 0 0 0 
0 0 0 0 0 0 0 0 0 
0 0 0 0 0 0 0 0 0 
0 0 0 0 0 0 0 0 0 
0 0 0 0 0 0 0 0 0 
0 0 0 0 0 0 0 0 0 
0 0 0 0 0 0 0 0 0 
0 0 0 0 0 0 0 0 0 
0 0 0 0 0 0 0 0 0 
0 0 0 0 0 0 0 0 0 
0 0 0 0 0 0 0 0 0 
0 0 0 0 0 0 0 0 0 
0 0 0 0 0 0 0 0 0 
0 0 0 0 0 0 0 0 0 
0 0 0 0 0 0 0 0 0 
0 0 0 0 0 0 0 0 0 
0 0 0 0 0 0 0 0 0 
0 0 0 0 0 0 0 0 0 
0 0 0 0 0 0 0 0 0 
0 0 0 0 0 0 0 0 0 
0 0 0 0 0 0 0 0 0 
0 0 0 0 0 0 0 0 0 
0 0 0 0 0 0 0 0 0 
0 0 0 0 0 0 0 0 0 
0 0 0 0 0 0 0 0 0 
0 0 0 0 0 0 0 0 0 
0 0 0 0 0 0 0 0 0 
0 0 0 0 0 0 0 0 0 
0 0 0 0 0 0 0 0 0 
0 0 0 0 0 0 0 0 0 
0 0 0 0 0 0 0 0 0 
0 0 0 0 0 0 0 0 0 
0 0 0 0 0 0 0 0 0 
0 0 0 0 0 0 0 
METADATA
INFORMATION 0

POINT_DATA 1792
NORMALS Normals float
0.299 -0.7001 -0.6484 0.2247 -0.5972 -0.77 0.4121 -0.635 -0.6534 
0.5019 -0.7156 -0.4857 0.2247 -0.5972 -0.77 0.1828 -0.4721 -0.8624 
0.3491 -0.5138 -0.7836 0.4121 -0.635 -0.6534 0.5019 -0.7156 -0.4857 
0.4121 -0.635 -0.6534 0.5545 -0.6855 -0.4717 0.6118 -0.7324 -0.2987 
0.4121 -0.635 -0.6534 0.3491 -0.5138 -0.7836 0.5024 -0.5841 -0.6375 
0.5545 -0.6855 -0.4717 0 -0.8141 -0.5807 0 -0.6961 -0.7179 
0.299 -0.7001 -0.6484 0.4165 -0.7738 -0.4772 0 -0.6961 -0.7179 
0 -0.5838 -0.8119 0.2247 -0.5972 -0.77 0.299 -0.7001 -0.6484 
0 -0.5838 -0.8119 0 -0.4585 -0.8887 0.1828 -0.4721 -0.8624 
0.2247 -0.5972 -0.77 0 -0.4585 -0.8887 0 -0.3118 -0.9501 
0.1565 -0.3226 -0.9335 0.1828 -0.4721 -0.8624 0.1828 -0.4721 -0.8624 
0.1565 -0.3226 -0.9335 0.299 -0.3581 -0.8845 0.3491 -0.5138 -0.7836 
0.3491 -0.5138 -0.7836 0.299 -0.3581 -0.8845 0.4438 -0.4297 -0.7863 
0.5024 -0.5841 -0.6375 0.5024 -0.5841 -0.6375 0.4438 -0.4297 -0.7863 
0.6105 -0.53 -0.5885 0.6276 -0.6605 -0.4121 0.5545 -0.6855 -0.4717 
0.5024 -0.5841 -0.6375 0.6276 -0.6605 -0.4121 0.6367 -0.7299 -0.2487 
0.6118 -0.7324 -0.2987 0.5545 -0.6855 -0.4717 0.6367 -0.7299 -0.2487 
0.6548 -0.7468 -0.1159 0.6772 -0.7266 -0.1158 0.6118 -0.7324 -0.2987 
0.6548 -0.7468 -0.1159 0.6773 -0.7352 -0.0263 0.6138 -0.7375 -0.2816 
0.5019 -0.7156 -0.4857 0.6118 -0.7324 -0.2987 0.6772 -0.7266 -0.1158 
0.4165 -0.7738 -0.4772 0.299 -0.7001 -0.6484 0.5019 -0.7156 -0.4857 
0.6138 -0.7375 -0.2816 0.7883 -0.5799 0.2056 0.8048 -0.5936 0 
0.8667 -0.4988 0 0.8569 -0.4818 0.1831 0.8048 -0.5936 0 
0.7883 -0.5799 -0.2056 0.8569 -0.4818 -0.1831 0.8667 -0.4988 0 
0.8569 -0.4818 0.1831 0.8667 -0.4988 0 0.9293 -0.3692 0 
0.9206 -0.3549 0.1626 0.8667 -0.4988 0 0.8569 -0.4818 -0.1831 
0.9206 -0.3549 -0.1626 0.9293 -0.3692 0 0.6105 -0.53 0.5885 
0.7296 -0.6542 0.1992 0.7883 -0.5799 0.2056 0.6845 -0.4805 0.5482 
0.7296 -0.6542 0.1992 0.7411 -0.6714 0 0.8048 -0.5936 0 
0.7883 -0.5799 0.2056 0.7411 -0.6714 0 0.7296 -0.6542 -0.1992 
0.7883 -0.5799 -0.2056 0.8048 -0.5936 0 0.7296 -0.6542 -0.1992 
0.6105 -0.53 -0.5885 0.6845 -0.4805 -0.5482 0.7883 -0.5799 -0.2056 
0.7883 -0.5799 -0.2056 0.6845 -0.4805 -0.5482 0.7761 -0.3956 -0.4911 
0.8569 -0.4818 -0.1831 0.8569 -0.4818 -0.1831 0.7761 -0.3956 -0.4911 
0.8613 -0.2781 -0.4253 0.9206 -0.3549 -0.1626 0.9206 -0.3549 -0.1626 
0.8613 -0.2781 -0.4253 0.9235 -0.1459 -0.3548 0.9736 -0.1556 -0.1668 
0.9293 -0.3692 0 0.9206 -0.3549 -0.1626 0.9736 -0.1556 -0.1668 
0.9868 -0.1615 0 0.9206 -0.3549 0.1626 0.9293 -0.3692 0 
0.9868 -0.1615 0 0.9736 -0.1556 0.1668 0.8613 -0.2781 0.4253 
0.9206 -0.3549 0.1626 0.9736 -0.1556 0.1668 0.9235 -0.1459 0.3548 
0.7761 -0.3956 0.4911 0.8569 -0.4818 0.1831 0.9206 -0.3549 0.1626 
0.8613 -0.2781 0.4253 0.6845 -0.4805 0.5482 0.7883 -0.5799 0.2056 
0.8569 -0.4818 0.1831 0.7761 -0.3956 0.4911 0.5024 -0.5841 0.6375 
0.3491 -0.5138 0.7836 0.4121 -0.635 0.6534 0.5545 -0.6855 0.4717 
0.3491 -0.5138 0.7836 0.1828 -0.4721 0.8624 0.2247 -0.5972 0.77 
0.4121 -0.635 0.6534 0.5545 -0.6855 0.4717 0.4121 -0.635 0.6534 
0.5019 -0.7156 0.4857 0.6118 -0.7324 0.2987 0.4121 -0.635 0.6534 
0.2247 -0.5972 0.77 0.299 -0.7001 0.6484 0.5019 -0.7156 0.4857 
0.6105 -0.53 0.5885 0.4438 -0.4297 0.7863 0.5024 -0.5841 0.6375 
0.6276 -0.6605 0.4121 0.4438 -0.4297 0.7863 0.299 -0.3581 0.8845 
0.3491 -0.5138 0.7836 0.5024 -0.5841 0.6375 0.299 -0.3581 0.8845 
0.1565 -0.3226 0.9335 0.1828 -0.4721 0.8624 0.3491 -0.5138 0.7836 
0.1565 -0.3226 0.9335 0 -0.3118 0.9501 0 -0.4585 0.8887 
0.1828 -0.4721 0.8624 0.1828 -0.4721 0.8624 0 -0.4585 0.8887 
0 -0.5838 0.8119 0.2247 -0.5972 0.77 0.2247 -0.5972 0.77 
0 -0.5838 0.8119 0 -0.6961 0.7179 0.299 -0.7001 0.6484 
0.299 -0.7001 0.6484 0 -0.6961 0.7179 0 -0.8141 0.5807 
0.4165 -0.7738 0.4772 0.5019 -0.7156 0.4857 0.299 -0.7001 0.6484 
0.4165 -0.7738 0.4772 0.6138 -0.7375 0.2816 0.6118 -0.7324 0.2987 
0.5019 -0.7156 0.4857 0.6138 -0.7375 0.2816 0.6772 -0.7266 0.1158 
0.6548 -0.7468 0.1159 0.6118 -0.7324 0.2987 0.6772 -0.7266 0.1158 
0.6773 -0.7352 0.0263 0.6367 -0.7299 0.2487 0.5545 -0.6855 0.4717 
0.6118 -0.7324 0.2987 0.6548 -0.7468 0.1159 0.6276 -0.6605 0.4121 
0.5024 -0.5841 0.6375 0.5545 -0.6855 0.4717 0.6367 -0.7299 0.2487 
0.653 -0.7572 0.0156 0.6546 -0.7541 -0.0534 0.6501 -0.7598 0 
0.6469 -0.7625 0 0.6546 -0.7541 -0.0534 0.6848 -0.7152 -0.1396 
0.685 -0.7285 0 0.6501 -0.7598 0 0.6469 -0.7625 0 
0.6501 -0.7598 0 0.6546 -0.7541 0.0534 0.653 -0.7572 -0.0156 
0.6501 -0.7598 0 0.685 -0.7285 0 0.6848 -0.7152 0.1396 
0.6546 -0.7541 0.0534 0.6773 -0.7352 -0.0263 0.6548 -0.7468 -0.1159 
0.653 -0.7572 0.0156 0.6875 -0.7242 0.0527 0.6548 -0.7468 -0.1159 
0.6367 -0.7299 -0.2487 0.6546 -0.7541 -0.0534 0.653 -0.7572 0.0156 
0.6367 -0.7299 -0.2487 0.6276 -0.6605 -0.4121 0.6848 -0.7152 -0.1396 
0.6546 -0.7541 -0.0534 0.6276 -0.6605 -0.4121 0.6105 -0.53 -0.5885 
0.7296 -0.6542 -0.1992 0.6848 -0.7152 -0.1396 0.6848 -0.7152 -0.1396 
0.7296 -0.6542 -0.1992 0.7411 -0.6714 0 0.685 -0.7285 0 
0.685 -0.7285 0 0.7411 -0.6714 0 0.7296 -0.6542 0.1992 
0.6848 -0.7152 0.1396 0.6848 -0.7152 0.1396 0.7296 -0.6542 0.1992 
0.6105 -0.53 0.5885 0.6276 -0.6605 0.4121 0.6546 -0.7541 0.0534 
0.6848 -0.7152 0.1396 0.6276 -0.6605 0.4121 0.6367 -0.7299 0.2487 
0.653 -0.7572 -0.0156 0.6546 -0.7541 0.0534 0.6367 -0.7299 0.2487 
0.6548 -0.7468 0.1159 0.6875 -0.7242 -0.0527 0.653 -0.7572 -0.0156 
0.6548 -0.7468 0.1159 0.6773 -0.7352 0.0263 0.6909 -0.7229 0 
0.6469 -0.7625 0 0.653 -0.7572 -0.0156 0.6875 -0.7242 -0.0527 
0.6875 -0.7242 0.0527 0.653 -0.7572 0.0156 0.6469 -0.7625 0 
0.6909 -0.7229 0 0.2625 0.0032 0.9649 0.349 -0.1145 0.9301 
0.4447 -0.0457 0.8945 0.3377 0.0906 0.9369 0.349 -0.1145 0.9301 
0.5056 -0.2887 0.813 0.6093 -0.2234 0.7608 0.4447 -0.0457 0.8945 
0.3377 0.0906 0.9369 0.4447 -0.0457 0.8945 0.6004 0.0897 0.7946 
0.4797 0.2522 0.8404 0.4447 -0.0457 0.8945 0.6093 -0.2234 0.7608 
0.7347 -0.1026 0.6705 0.6004 0.0897 0.7946 0.195 0.0408 0.9799 
0.2318 -0.0204 0.9725 0.2625 0.0032 0.9649 0.2105 0.0862 0.9738 
0.2318 -0.0204 0.9725 0.3025 -0.1238 0.9451 0.349 -0.1145 0.9301 
0.2625 0.0032 0.9649 0.3025 -0.1238 0.9451 0.4339 -0.2965 0.8507 
0.5056 -0.2887 0.813 0.349 -0.1145 0.9301 0.4339 -0.2965 0.8507 
0.6105 -0.53 0.5885 0.6845 -0.4805 0.5482 0.5056 -0.2887 0.813 
0.5056 -0.2887 0.813 0.6845 -0.4805 0.5482 0.7761 -0.3956 0.4911 
0.6093 -0.2234 0.7608 0.6093 -0.2234 0.7608 0.7761 -0.3956 0.4911 
0.8613 -0.2781 0.4253 0.7347 -0.1026 0.6705 0.7347 -0.1026 0.6705 
0.8613 -0.2781 0.4253 0.9235 -0.1459 0.3548 0.8791 0.0402 0.4749 
0.6004 0.0897 0.7946 0.7347 -0.1026 0.6705 0.8791 0.0402 0.4749 
0.7791 0.2584 0.5711 0.4797 0.2522 0.8404 0.6004 0.0897 0.7946 
0.7791 0.2584 0.5711 0.6506 0.4512 0.6109 0.3812 0.378 0.8437 
0.4797 0.2522 0.8404 0.6506 0.4512 0.6109 0.5177 0.5978 0.612 
0.2674 0.1916 0.9443 0.3377 0.0906 0.9369 0.4797 0.2522 0.8404 
0.3812 0.378 0.8437 0.2105 0.0862 0.9738 0.2625 0.0032 0.9649 
0.3377 0.0906 0.9369 0.2674 0.1916 0.9443 0.9691 0.1093 -0.2208 
0.8892 0.3669 -0.2732 0.9182 0.396 0 0.9929 0.1192 0 
0.8892 0.3669 -0.2732 0.7575 0.5816 -0.2966 0.786 0.6182 0 
0.9182 0.396 0 0.9929 0.1192 0 0.9182 0.396 0 
0.8892 0.3669 0.2732 0.9691 0.1093 0.2208 0.9182 0.396 0 
0.786 0.6182 0 0.7575 0.5816 0.2966 0.8892 0.3669 0.2732 
0.9235 -0.1459 -0.3548 0.8791 0.0402 -0.4749 0.9691 0.1093 -0.2208 
0.9736 -0.1556 -0.1668 0.8791 0.0402 -0.4749 0.7791 0.2583 -0.5711 
0.8892 0.3669 -0.2732 0.9691 0.1093 -0.2208 0.7791 0.2583 -0.5711 
0.6506 0.4512 -0.6109 0.7575 0.5816 -0.2966 0.8892 0.3669 -0.2732 
0.6506 0.4512 -0.6109 0.5177 0.5978 -0.612 0.6034 0.7394 -0.2986 
0.7575 0.5816 -0.2966 0.7575 0.5816 -0.2966 0.6034 0.7394 -0.2986 
0.6264 0.7795 0 0.786 0.6182 0 0.786 0.6182 0 
0.6264 0.7795 0 0.6034 0.7394 0.2986 0.7575 0.5816 0.2966 
0.7575 0.5816 0.2966 0.6034 0.7394 0.2986 0.5177 0.5978 0.612 
0.6506 0.4512 0.6109 0.8892 0.3669 0.2732 0.7575 0.5816 0.2966 
0.6506 0.4512 0.6109 0.7791 0.2584 0.5711 0.9691 0.1093 0.2208 
0.8892 0.3669 0.2732 0.7791 0.2584 0.5711 0.8791 0.0402 0.4749 
0.9736 -0.1556 0.1668 0.9691 0.1093 0.2208 0.8791 0.0402 0.4749 
0.9235 -0.1459 0.3548 0.9868 -0.1615 0 0.9929 0.1192 0 
0.9691 0.1093 0.2208 0.9736 -0.1556 0.1668 0.9736 -0.1556 -0.1668 
0.9691 0.1093 -0.2208 0.9929 0.1192 0 0.9868 -0.1615 0 
0.432 0.8543 -0.289 0.2268 0.9365 -0.2674 0.2373 0.9714 0 
0.4483 0.8939 0 0.2268 0.9365 -0.2674 -0.0239 0.9735 -0.2273 
-0.0286 0.9996 0 0.2373 0.9714 0 0.4483 0.8939 0 
0.2373 0.9714 0 0.2268 0.9365 0.2674 0.432 0.8543 0.289 
0.2373 0.9714 0 -0.0286 0.9996 0 -0.0239 0.9735 0.2273 
0.2268 0.9365 0.2674 0.5177 0.5978 -0.612 0.3695 0.7129 -0.5959 
0.432 0.8543 -0.289 0.6034 0.7394 -0.2986 0.3695 0.7129 -0.5959 
0.1797 0.8096 -0.5587 0.2268 0.9365 -0.2674 0.432 0.8543 -0.289 
0.1797 0.8096 -0.5587 -0.0524 0.8722 -0.4863 -0.0239 0.9735 -0.2273 
0.2268 0.9365 -0.2674 -0.0524 0.8722 -0.4863 -0.2766 0.8815 -0.3827 
-0.3133 0.9298 -0.1931 -0.0239 0.9735 -0.2273 -0.0239 0.9735 -0.2273 
-0.3133 0.9298 -0.1931 -0.3282 0.9446 0 -0.0286 0.9996 0 
-0.0286 0.9996 0 -0.3282 0.9446 0 -0.3133 0.9298 0.1931 
-0.0239 0.9735 0.2273 -0.0239 0.9735 0.2273 -0.3133 0.9298 0.1931 
-0.2766 0.8815 0.3827 -0.0524 0.8722 0.4863 0.2268 0.9365 0.2674 
-0.0239 0.9735 0.2273 -0.0524 0.8722 0.4863 0.1797 0.8096 0.5587 
0.432 0.8543 0.289 0.2268 0.9365 0.2674 0.1797 0.8096 0.5587 
0.3695 0.7129 0.5959 0.6034 0.7394 0.2986 0.432 0.8543 0.289 
0.3695 0.7129 0.5959 0.5177 0.5978 0.612 0.6264 0.7795 0 
0.4483 0.8939 0 0.432 0.8543 0.289 0.6034 0.7394 0.2986 
0.6034 0.7394 -0.2986 0.432 0.8543 -0.289 0.4483 0.8939 0 
0.6264 0.7795 0 0.1457 0.1546 -0.9772 0.0373 0.2595 -0.965 
0.0347 0.3999 -0.9159 0.1819 0.2822 -0.9419 0.0373 0.2595 -0.965 
-0.1219 0.4569 -0.8811 -0.1909 0.5647 -0.8029 0.0347 0.3999 -0.9159 
0.1819 0.2822 -0.9419 0.0347 0.3999 -0.9159 0.0965 0.5995 -0.7945 
0.2672 0.4863 -0.8319 0.0347 0.3999 -0.9159 -0.1909 0.5647 -0.8029 
-0.1409 0.7085 -0.6915 0.0965 0.5995 -0.7945 0.195 0.0408 -0.9799 
0.158 0.0797 -0.9842 0.1457 0.1546 -0.9772 0.2105 0.0862 -0.9738 
0.158 0.0797 -0.9842 0.0915 0.1584 -0.9831 0.0373 0.2595 -0.965 
0.1457 0.1546 -0.9772 0.0915 0.1584 -0.9831 -0.0151 0.3153 -0.9489 
-0.1219 0.4569 -0.8811 0.0373 0.2595 -0.965 -0.0151 0.3153 -0.9489 
0 0.5813 -0.8137 -0.3191 0.7207 -0.6154 -0.1219 0.4569 -0.8811 
-0.1219 0.4569 -0.8811 -0.3191 0.7207 -0.6154 -0.4375 0.7266 -0.5296 
-0.1909 0.5647 -0.8029 -0.1909 0.5647 -0.8029 -0.4375 0.7266 -0.5296 
-0.3901 0.7956 -0.4634 -0.1409 0.7085 -0.6915 -0.1409 0.7085 -0.6915 
-0.3901 0.7956 -0.4634 -0.2766 0.8815 -0.3827 -0.0524 0.8722 -0.4863 
0.0965 0.5995 -0.7945 -0.1409 0.7085 -0.6915 -0.0524 0.8722 -0.4863 
0.1797 0.8096 -0.5587 0.2672 0.4863 -0.8319 0.0965 0.5995 -0.7945 
0.1797 0.8096 -0.5587 0.3695 0.7129 -0.5959 0.3812 0.378 -0.8437 
0.2672 0.4863 -0.8319 0.3695 0.7129 -0.5959 0.5177 0.5978 -0.612 
0.2674 0.1916 -0.9443 0.1819 0.2822 -0.9419 0.2672 0.4863 -0.8319 
0.3812 0.378 -0.8437 0.2105 0.0862 -0.9738 0.1457 0.1546 -0.9772 
0.1819 0.2822 -0.9419 0.2674 0.1916 -0.9443 0.5056 -0.2887 -0.813 
0.349 -0.1145 -0.9301 0.4447 -0.0457 -0.8945 0.6093 -0.2234 -0.7608 
0.349 -0.1145 -0.9301 0.2625 0.0032 -0.9649 0.3377 0.0906 -0.9369 
0.4447 -0.0457 -0.8945 0.6093 -0.2234 -0.7608 0.4447 -0.0457 -0.8945 
0.6004 0.0897 -0.7946 0.7347 -0.1026 -0.6705 0.4447 -0.0457 -0.8945 
0.3377 0.0906 -0.9369 0.4797 0.2522 -0.8404 0.6004 0.0897 -0.7946 
0.6105 -0.53 -0.5885 0.4339 -0.2965 -0.8507 0.5056 -0.2887 -0.813 
0.6845 -0.4805 -0.5482 0.4339 -0.2965 -0.8507 0.3025 -0.1238 -0.9451 
0.349 -0.1145 -0.9301 0.5056 -0.2887 -0.813 0.3025 -0.1238 -0.9451 
0.2318 -0.0204 -0.9725 0.2625 0.0032 -0.9649 0.349 -0.1145 -0.9301 
0.2318 -0.0204 -0.9725 0.195 0.0408 -0.9799 0.2105 0.0862 -0.9738 
0.2625 0.0032 -0.9649 0.2625 0.0032 -0.9649 0.2105 0.0862 -0.9738 
0.2674 0.1916 -0.9443 0.3377 0.0906 -0.9369 0.3377 0.0906 -0.9369 
0.2674 0.1916 -0.9443 0.3812 0.378 -0.8437 0.4797 0.2522 -0.8404 
0.4797 0.2522 -0.8404 0.3812 0.378 -0.8437 0.5177 0.5978 -0.612 
0.6506 0.4512 -0.6109 0.6004 0.0897 -0.7946 0.4797 0.2522 -0.8404 
0.6506 0.4512 -0.6109 0.7791 0.2583 -0.5711 0.7347 -0.1026 -0.6705 
0.6004 0.0897 -0.7946 0.7791 0.2583 -0.5711 0.8791 0.0402 -0.4749 
0.8613 -0.2781 -0.4253 0.7347 -0.1026 -0.6705 0.8791 0.0402 -0.4749 
0.9235 -0.1459 -0.3548 0.7761 -0.3956 -0.4911 0.6093 -0.2234 -0.7608 
0.7347 -0.1026 -0.6705 0.8613 -0.2781 -0.4253 0.6845 -0.4805 -0.5482 
0.5056 -0.2887 -0.813 0.6093 -0.2234 -0.7608 0.7761 -0.3956 -0.4911 
-0.4476 0.8606 -0.2428 -0.466 0.8848 0 -0.6059 0.7956 0 
-0.5745 0.7884 -0.2199 -0.466 0.8848 0 -0.4476 0.8606 0.2428 
-0.5745 0.7884 0.2199 -0.6059 0.7956 0 -0.5745 0.7884 -0.2199 
-0.6059 0.7956 0 -0.541 0.841 0 -0.5173 0.8319 -0.2007 
-0.6059 0.7956 0 -0.5745 0.7884 0.2199 -0.5173 0.8319 0.2007 
-0.541 0.841 0 0 0.5813 -0.8137 0 0.9588 -0.2839 
-0.4476 0.8606 -0.2428 -0.3191 0.7207 -0.6154 0 0.9588 -0.2839 
0 1 0 -0.466 0.8848 0 -0.4476 0.8606 -0.2428 
0 1 0 0 0.9588 0.2839 -0.4476 0.8606 0.2428 
-0.466 0.8848 0 0 0.9588 0.2839 0 0.5813 0.8137 
-0.3191 0.7207 0.6154 -0.4476 0.8606 0.2428 -0.4476 0.8606 0.2428 
-0.3191 0.7207 0.6154 -0.4375 0.7266 0.5296 -0.5745 0.7884 0.2199 
-0.5745 0.7884 0.2199 -0.4375 0.7266 0.5296 -0.3901 0.7956 0.4634 
-0.5173 0.8319 0.2007 -0.5173 0.8319 0.2007 -0.3901 0.7956 0.4634 
-0.2766 0.8815 0.3827 -0.3133 0.9298 0.1931 -0.541 0.841 0 
-0.5173 0.8319 0.2007 -0.3133 0.9298 0.1931 -0.3282 0.9446 0 
-0.5173 0.8319 -0.2007 -0.541 0.841 0 -0.3282 0.9446 0 
-0.3133 0.9298 -0.1931 -0.3901 0.7956 -0.4634 -0.5173 0.8319 -0.2007 
-0.3133 0.9298 -0.1931 -0.2766 0.8815 -0.3827 -0.4375 0.7266 -0.5296 
-0.5745 0.7884 -0.2199 -0.5173 0.8319 -0.2007 -0.3901 0.7956 -0.4634 
-0.3191 0.7207 -0.6154 -0.4476 0.8606 -0.2428 -0.5745 0.7884 -0.2199 
-0.4375 0.7266 -0.5296 -0.1219 0.4569 0.8811 0.0373 0.2595 0.965 
0.0347 0.3999 0.9159 -0.1909 0.5647 0.8029 0.0373 0.2595 0.965 
0.1457 0.1546 0.9772 0.1819 0.2822 0.9419 0.0347 0.3999 0.9159 
-0.1909 0.5647 0.8029 0.0347 0.3999 0.9159 0.0965 0.5995 0.7945 
-0.1409 0.7085 0.6915 0.0347 0.3999 0.9159 0.1819 0.2822 0.9419 
0.2672 0.4863 0.8319 0.0965 0.5995 0.7945 0 0.5813 0.8137 
-0.0151 0.3153 0.9489 -0.1219 0.4569 0.8811 -0.3191 0.7207 0.6154 
-0.0151 0.3153 0.9489 0.0915 0.1584 0.9831 0.0373 0.2595 0.965 
-0.1219 0.4569 0.8811 0.0915 0.1584 0.9831 0.158 0.0797 0.9842 
0.1457 0.1546 0.9772 0.0373 0.2595 0.965 0.158 0.0797 0.9842 
0.195 0.0408 0.9799 0.2105 0.0862 0.9738 0.1457 0.1546 0.9772 
0.1457 0.1546 0.9772 0.2105 0.0862 0.9738 0.2674 0.1916 0.9443 
0.1819 0.2822 0.9419 0.1819 0.2822 0.9419 0.2674 0.1916 0.9443 
0.3812 0.378 0.8437 0.2672 0.4863 0.8319 0.2672 0.4863 0.8319 
0.3812 0.378 0.8437 0.5177 0.5978 0.612 0.3695 0.7129 0.5959 
0.0965 0.5995 0.7945 0.2672 0.4863 0.8319 0.3695 0.7129 0.5959 
0.1797 0.8096 0.5587 -0.1409 0.7085 0.6915 0.0965 0.5995 0.7945 
0.1797 0.8096 0.5587 -0.0524 0.8722 0.4863 -0.3901 0.7956 0.4634 
-0.1409 0.7085 0.6915 -0.0524 0.8722 0.4863 -0.2766 0.8815 0.3827 
-0.4375 0.7266 0.5296 -0.1909 0.5647 0.8029 -0.1409 0.7085 0.6915 
-0.3901 0.7956 0.4634 -0.3191 0.7207 0.6154 -0.1219 0.4569 0.8811 
-0.1909 0.5647 0.8029 -0.4375 0.7266 0.5296 0.5318 -0.8132 -0.2364 
0.7085 -0.7005 -0.0856 0.7434 -0.6688 0 0.5807 -0.8141 0 
0.7085 -0.7005 -0.0856 0.7259 -0.6875 0.0178 0.7434 -0.6688 0 
0.7434 -0.6688 0 0.5807 -0.8141 0 0.7434 -0.6688 0 
0.7085 -0.7005 0.0856 0.5318 -0.8132 0.2364 0.7434 -0.6688 0 
0.7434 -0.6688 0 0.7259 -0.6875 -0.0178 0.7085 -0.7005 0.0856 
0 -0.8141 -0.5807 0.4165 -0.7738 -0.4772 0.5318 -0.8132 -0.2364 
0 -0.949 -0.3153 0.4165 -0.7738 -0.4772 0.6138 -0.7375 -0.2816 
0.7085 -0.7005 -0.0856 0.5318 -0.8132 -0.2364 0.6138 -0.7375 -0.2816 
0.6772 -0.7266 -0.1158 0.7259 -0.6875 0.0178 0.7085 -0.7005 -0.0856 
0.6772 -0.7266 -0.1158 0.6773 -0.7352 -0.0263 0.6875 -0.7242 0.0527 
0.7259 -0.6875 0.0178 0.7259 -0.6875 0.0178 0.6875 -0.7242 0.0527 
0.6909 -0.7229 0 0.7434 -0.6688 0 0.7434 -0.6688 0 
0.6909 -0.7229 0 0.6875 -0.7242 -0.0527 0.7259 -0.6875 -0.0178 
0.7259 -0.6875 -0.0178 0.6875 -0.7242 -0.0527 0.6773 -0.7352 0.0263 
0.6772 -0.7266 0.1158 0.7085 -0.7005 0.0856 0.7259 -0.6875 -0.0178 
0.6772 -0.7266 0.1158 0.6138 -0.7375 0.2816 0.5318 -0.8132 0.2364 
0.7085 -0.7005 0.0856 0.6138 -0.7375 0.2816 0.4165 -0.7738 0.4772 
0 -0.949 0.3153 0.5318 -0.8132 0.2364 0.4165 -0.7738 0.4772 
0 -0.8141 0.5807 0 -1 0 0.5807 -0.8141 0 
0.5318 -0.8132 0.2364 0 -0.949 0.3153 0 -0.949 -0.3153 
0.5318 -0.8132 -0.2364 0.5807 -0.8141 0 0 -1 0 
0.3543 -0.2476 -0.9018 0.2497 -0.1939 -0.9487 0.2017 -0.0527 -0.978 
0.2658 -0.0936 -0.9594 0.2497 -0.1939 -0.9487 0.1346 -0.1641 -0.9772 
0.1088 -0.0164 -0.9939 0.2017 -0.0527 -0.978 0.2658 -0.0936 -0.9594 
0.2017 -0.0527 -0.978 0.1518 0.0625 -0.9864 0.2054 0.0092 -0.9786 
0.2017 -0.0527 -0.978 0.1088 -0.0164 -0.9939 0.0599 0.1375 -0.9887 
0.1518 0.0625 -0.9864 0.6105 -0.53 -0.5885 0.4438 -0.4297 -0.7863 
0.3543 -0.2476 -0.9018 0.4339 -0.2965 -0.8507 0.4438 -0.4297 -0.7863 
0.299 -0.3581 -0.8845 0.2497 -0.1939 -0.9487 0.3543 -0.2476 -0.9018 
0.299 -0.3581 -0.8845 0.1565 -0.3226 -0.9335 0.1346 -0.1641 -0.9772 
0.2497 -0.1939 -0.9487 0.1565 -0.3226 -0.9335 0 -0.3118 -0.9501 
0 -0.1537 -0.9881 0.1346 -0.1641 -0.9772 0.1346 -0.1641 -0.9772 
0 -0.1537 -0.9881 0 -0.0002 -1 0.1088 -0.0164 -0.9939 
0.1088 -0.0164 -0.9939 0 -0.0002 -1 0 0.1845 -0.9828 
0.0599 0.1375 -0.9887 0.0599 0.1375 -0.9887 0 0.1845 -0.9828 
0 0.5813 -0.8137 -0.0151 0.3153 -0.9489 0.1518 0.0625 -0.9864 
0.0599 0.1375 -0.9887 -0.0151 0.3153 -0.9489 0.0915 0.1584 -0.9831 
0.2054 0.0092 -0.9786 0.1518 0.0625 -0.9864 0.0915 0.1584 -0.9831 
0.158 0.0797 -0.9842 0.2318 -0.0204 -0.9725 0.2054 0.0092 -0.9786 
0.158 0.0797 -0.9842 0.195 0.0408 -0.9799 0.3025 -0.1238 -0.9451 
0.2658 -0.0936 -0.9594 0.2054 0.0092 -0.9786 0.2318 -0.0204 -0.9725 
0.4339 -0.2965 -0.8507 0.3543 -0.2476 -0.9018 0.2658 -0.0936 -0.9594 
0.3025 -0.1238 -0.9451 0.1346 -0.1641 0.9772 0.2497 -0.1939 0.9487 
0.2017 -0.0527 0.978 0.1088 -0.0164 0.9939 0.2497 -0.1939 0.9487 