# vtk DataFile Version 4.2
vtk output
ASCII
DATASET POLYDATA
FIELD FieldData 1
MaterialNames 1 1 string
None

POINTS 1792 float
0.030659 -0.230388 -0.085408 0.042439 -0.179126 -0.120362 0.0835 -0.166867 -0.111464 
0.060797 -0.215288 -0.080076 0.042439 -0.179126 -0.120362 0.05416 -0.115512 -0.153852 
0.10742 -0.106187 -0.141989 0.0835 -0.166867 -0.111464 0.060797 -0.215288 -0.080076 
0.0835 -0.166867 -0.111464 0.121016 -0.151243 -0.095856 0.088928 -0.196099 -0.070239 
0.0835 -0.166867 -0.111464 0.10742 -0.106187 -0.141989 0.157986 -0.092935 -0.12211 
0.121016 -0.151243 -0.095856 -0 -0.27467 -0.053507 0 -0.236531 -0.087069 
0.030659 -0.230388 -0.085408 0.021012 -0.267506 -0.0528 0 -0.236531 -0.087069 
-0 -0.183991 -0.123227 0.042439 -0.179126 -0.120362 0.030659 -0.230388 -0.085408 
-0 -0.183991 -0.123227 0 -0.11893 -0.157861 0.05416 -0.115512 -0.153852 
0.042439 -0.179126 -0.120362 0 -0.11893 -0.157861 -0 -0.043761 -0.186434 
0.063157 -0.041935 -0.18162 0.05416 -0.115512 -0.153852 0.05416 -0.115512 -0.153852 
0.063157 -0.041935 -0.18162 0.12604 -0.035746 -0.168137 0.10742 -0.106187 -0.141989 
0.10742 -0.106187 -0.141989 0.12604 -0.035746 -0.168137 0.188666 -0.02374 -0.147026 
0.157986 -0.092935 -0.12211 0.157986 -0.092935 -0.12211 0.188666 -0.02374 -0.147026 
0.256457 -0.000154 -0.114584 0.19893 -0.080968 -0.091716 0.121016 -0.151243 -0.095856 
0.157986 -0.092935 -0.12211 0.19893 -0.080968 -0.091716 0.149656 -0.13743 -0.071699 
0.088928 -0.196099 -0.070239 0.121016 -0.151243 -0.095856 0.149656 -0.13743 -0.071699 
0.109852 -0.180109 -0.054047 0.066035 -0.226373 -0.046249 0.088928 -0.196099 -0.070239 
0.109852 -0.180109 -0.054047 0.08475 -0.206457 -0.041587 0.043007 -0.249693 -0.050454 
0.060797 -0.215288 -0.080076 0.088928 -0.196099 -0.070239 0.066035 -0.226373 -0.046249 
0.021012 -0.267506 -0.0528 0.030659 -0.230388 -0.085408 0.060797 -0.215288 -0.080076 
0.043007 -0.249693 -0.050454 0.329969 0.051363 0.05696 0.332157 0.045682 -0 
0.373866 0.110577 -0 0.372249 0.116504 0.05323 0.332157 0.045682 -0 
0.329969 0.051363 -0.05696 0.372249 0.116504 -0.05323 0.373866 0.110577 -0 
0.372249 0.116504 0.05323 0.373866 0.110577 -0 0.403472 0.172751 -0 
0.400749 0.17645 0.047875 0.373866 0.110577 -0 0.372249 0.116504 -0.05323 
0.400749 0.17645 -0.047875 0.403472 0.172751 -0 0.256457 -0.000154 0.114584 
0.276932 -0.015215 0.056648 0.329969 0.051363 0.05696 0.322113 0.074509 0.10593 
0.276932 -0.015215 0.056648 0.281006 -0.018072 -0 0.332157 0.045682 -0 
0.329969 0.051363 0.05696 0.281006 -0.018072 -0 0.276932 -0.015215 -0.056648 
0.329969 0.051363 -0.05696 0.332157 0.045682 -0 0.276932 -0.015215 -0.056648 
0.256457 -0.000154 -0.114584 0.322113 0.074509 -0.10593 0.329969 0.051363 -0.05696 
0.329969 0.051363 -0.05696 0.322113 0.074509 -0.10593 0.365429 0.137549 -0.098121 
0.372249 0.116504 -0.05323 0.372249 0.116504 -0.05323 0.365429 0.137549 -0.098121 
0.393464 0.191907 -0.087313 0.400749 0.17645 -0.047875 0.400749 0.17645 -0.047875 
0.393464 0.191907 -0.087313 0.406993 0.228948 -0.075606 0.415469 0.230544 -0.044744 
0.403472 0.172751 -0 0.400749 0.17645 -0.047875 0.415469 0.230544 -0.044744 
0.419784 0.23141 -0 0.400749 0.17645 0.047875 0.403472 0.172751 -0 
0.419784 0.23141 -0 0.415469 0.230544 0.044744 0.393464 0.191907 0.087313 
0.400749 0.17645 0.047875 0.415469 0.230544 0.044744 0.406993 0.228948 0.075606 
0.365429 0.137549 0.098121 0.372249 0.116504 0.05323 0.400749 0.17645 0.047875 
0.393464 0.191907 0.087313 0.322113 0.074509 0.10593 0.329969 0.051363 0.05696 
0.372249 0.116504 0.05323 0.365429 0.137549 0.098121 0.157986 -0.092935 0.12211 
0.10742 -0.106187 0.141989 0.0835 -0.166867 0.111464 0.121016 -0.151243 0.095856 
0.10742 -0.106187 0.141989 0.05416 -0.115512 0.153852 0.042439 -0.179126 0.120362 
0.0835 -0.166867 0.111464 0.121016 -0.151243 0.095856 0.0835 -0.166867 0.111464 
0.060797 -0.215288 0.080076 0.088928 -0.196099 0.070239 0.0835 -0.166867 0.111464 
0.042439 -0.179126 0.120362 0.030659 -0.230388 0.085408 0.060797 -0.215288 0.080076 
0.256457 -0.000154 0.114584 0.188666 -0.02374 0.147026 0.157986 -0.092935 0.12211 
0.19893 -0.080968 0.091716 0.188666 -0.02374 0.147026 0.12604 -0.035746 0.168137 
0.10742 -0.106187 0.141989 0.157986 -0.092935 0.12211 0.12604 -0.035746 0.168137 
0.063157 -0.041935 0.18162 0.05416 -0.115512 0.153852 0.10742 -0.106187 0.141989 
0.063157 -0.041935 0.18162 -0 -0.043761 0.186434 -0 -0.11893 0.157861 
0.05416 -0.115512 0.153852 0.05416 -0.115512 0.153852 -0 -0.11893 0.157861 
-0 -0.183991 0.123227 0.042439 -0.179126 0.120362 0.042439 -0.179126 0.120362 
-0 -0.183991 0.123227 -0 -0.236531 0.087069 0.030659 -0.230388 0.085408 
0.030659 -0.230388 0.085408 -0 -0.236531 0.087069 -0 -0.27467 0.053507 
0.021012 -0.267506 0.0528 0.060797 -0.215288 0.080076 0.030659 -0.230388 0.085408 
0.021012 -0.267506 0.0528 0.043007 -0.249693 0.050454 0.088928 -0.196099 0.070239 
0.060797 -0.215288 0.080076 0.043007 -0.249693 0.050454 0.066035 -0.226373 0.046249 
0.109852 -0.180109 0.054047 0.088928 -0.196099 0.070239 0.066035 -0.226373 0.046249 
0.08475 -0.206457 0.041587 0.149656 -0.13743 0.071699 0.121016 -0.151243 0.095856 
0.088928 -0.196099 0.070239 0.109852 -0.180109 0.054047 0.19893 -0.080968 0.091716 
0.157986 -0.092935 0.12211 0.121016 -0.151243 0.095856 0.149656 -0.13743 0.071699 
0.11845 -0.173245 -0.029397 0.165036 -0.130055 -0.038364 0.16897 -0.127583 0 
0.119809 -0.171324 0 0.165036 -0.130055 -0.038364 0.219627 -0.077267 -0.048672 
0.224487 -0.076319 0 0.16897 -0.127583 0 0.119809 -0.171324 0 
0.16897 -0.127583 0 0.165036 -0.130055 0.038364 0.11845 -0.173245 0.029397 
0.16897 -0.127583 0 0.224487 -0.076319 0 0.219627 -0.077267 0.048672 
0.165036 -0.130055 0.038364 0.08475 -0.206457 -0.041587 0.109852 -0.180109 -0.054047 
0.11845 -0.173245 -0.029397 0.081718 -0.209158 -0.023787 0.109852 -0.180109 -0.054047 
0.149656 -0.13743 -0.071699 0.165036 -0.130055 -0.038364 0.11845 -0.173245 -0.029397 
0.149656 -0.13743 -0.071699 0.19893 -0.080968 -0.091716 0.219627 -0.077267 -0.048672 
0.165036 -0.130055 -0.038364 0.19893 -0.080968 -0.091716 0.256457 -0.000154 -0.114584 
0.276932 -0.015215 -0.056648 0.219627 -0.077267 -0.048672 0.219627 -0.077267 -0.048672 
0.276932 -0.015215 -0.056648 0.281006 -0.018072 -0 0.224487 -0.076319 0 
0.224487 -0.076319 0 0.281006 -0.018072 -0 0.276932 -0.015215 0.056648 
0.219627 -0.077267 0.048672 0.219627 -0.077267 0.048672 0.276932 -0.015215 0.056648 
0.256457 -0.000154 0.114584 0.19893 -0.080968 0.091716 0.165036 -0.130055 0.038364 
0.219627 -0.077267 0.048672 0.19893 -0.080968 0.091716 0.149656 -0.13743 0.071699 
0.11845 -0.173245 0.029397 0.165036 -0.130055 0.038364 0.149656 -0.13743 0.071699 
0.109852 -0.180109 0.054047 0.081718 -0.209158 0.023787 0.11845 -0.173245 0.029397 
0.109852 -0.180109 0.054047 0.08475 -0.206457 0.041587 0.079865 -0.209894 0 
0.119809 -0.171324 0 0.11845 -0.173245 0.029397 0.081718 -0.209158 0.023787 
0.081718 -0.209158 -0.023787 0.11845 -0.173245 -0.029397 0.119809 -0.171324 0 
0.079865 -0.209894 0 0.280867 0.23118 0.165331 0.29991 0.177519 0.156017 
0.338824 0.224101 0.144992 0.315108 0.273608 0.153867 0.29991 0.177519 0.156017 
0.313198 0.121385 0.138113 0.354931 0.175807 0.127988 0.338824 0.224101 0.144992 
0.315108 0.273608 0.153867 0.338824 0.224101 0.144992 0.368877 0.270218 0.1275 
0.343779 0.316955 0.134758 0.338824 0.224101 0.144992 0.354931 0.175807 0.127988 
0.384307 0.225622 0.112866 0.368877 0.270218 0.1275 0.230787 0.24258 0.177319 
0.240983 0.200768 0.174586 0.280867 0.23118 0.165331 0.253349 0.274909 0.171179 
0.240983 0.200768 0.174586 0.252421 0.141313 0.166602 0.29991 0.177519 0.156017 
0.280867 0.23118 0.165331 0.252421 0.141313 0.166602 0.260021 0.074728 0.1497 
0.313198 0.121385 0.138113 0.29991 0.177519 0.156017 0.260021 0.074728 0.1497 
0.256457 -0.000154 0.114584 0.322113 0.074509 0.10593 0.313198 0.121385 0.138113 
0.313198 0.121385 0.138113 0.322113 0.074509 0.10593 0.365429 0.137549 0.098121 
0.354931 0.175807 0.127988 0.354931 0.175807 0.127988 0.365429 0.137549 0.098121 
0.393464 0.191907 0.087313 0.384307 0.225622 0.112866 0.384307 0.225622 0.112866 
0.393464 0.191907 0.087313 0.406993 0.228948 0.075606 0.403691 0.262578 0.087711 
0.368877 0.270218 0.1275 0.384307 0.225622 0.112866 0.403691 0.262578 0.087711 
0.39042 0.307429 0.09798 0.343779 0.316955 0.134758 0.368877 0.270218 0.1275 
0.39042 0.307429 0.09798 0.365328 0.352882 0.102965 0.308787 0.359914 0.138513 
0.343779 0.316955 0.134758 0.365328 0.352882 0.102965 0.32982 0.394141 0.104984 
0.282008 0.317822 0.159221 0.315108 0.273608 0.153867 0.343779 0.316955 0.134758 
0.308787 0.359914 0.138513 0.253349 0.274909 0.171179 0.280867 0.23118 0.165331 
0.315108 0.273608 0.153867 0.282008 0.317822 0.159221 0.416346 0.280958 -0.048311 
0.403733 0.32947 -0.05335 0.408327 0.336441 -0 0.421114 0.286017 -0 
0.403733 0.32947 -0.05335 0.378512 0.375086 -0.055883 0.382894 0.382419 -0 
0.408327 0.336441 -0 0.421114 0.286017 -0 0.408327 0.336441 -0 
0.403733 0.32947 0.05335 0.416346 0.280958 0.048311 0.408327 0.336441 -0 
0.382894 0.382419 -0 0.378512 0.375085 0.055883 0.403733 0.32947 0.05335 
0.406993 0.228948 -0.075606 0.403691 0.262578 -0.087711 0.416346 0.280958 -0.048311 
0.415469 0.230544 -0.044744 0.403691 0.262578 -0.087711 0.39042 0.307429 -0.09798 
0.403733 0.32947 -0.05335 0.416346 0.280958 -0.048311 0.39042 0.307429 -0.09798 
0.365328 0.352882 -0.102965 0.378512 0.375086 -0.055883 0.403733 0.32947 -0.05335 
0.365328 0.352882 -0.102965 0.32982 0.394141 -0.104984 0.342838 0.415377 -0.056718 
0.378512 0.375086 -0.055883 0.378512 0.375086 -0.055883 0.342838 0.415377 -0.056718 
0.347133 0.422419 -0 0.382894 0.382419 -0 0.382894 0.382419 -0 
0.347133 0.422419 -0 0.342838 0.415377 0.056718 0.378512 0.375085 0.055883 
0.378512 0.375085 0.055883 0.342838 0.415377 0.056718 0.32982 0.394141 0.104984 
0.365328 0.352882 0.102965 0.403733 0.32947 0.05335 0.378512 0.375085 0.055883 
0.365328 0.352882 0.102965 0.39042 0.307429 0.09798 0.416346 0.280958 0.048311 
[...]
CELL_DATA 448
FIELD FieldData 2
MaterialIds 1 448 int
0 0 0 0 0 0 0 0 0 
0 0 0 0 0 0 0 0 0 
0 0 0 0 0 0 0 0 0 
0 0 0 0 0 0 0 0 0 
0 0 0 0 0 0 0 0 0 
0 0 0 0 0 0 0 0 0 
0 0 0 0 0 0 0 0 0 
0 0 0 0 0 0 0 0 0 
0 0 0 0 0 0 0 0 0 
0 0 0 0 0 0 0 0 0 
0 0 0 0 0 0 0 0 0 
0 0 0 0 0 0 0 0 0 
0 0 0 0 0 0 0 0 0 
0 0 0 0 0 0 0 0 0 
0 0 0 0 0 0 0 0 0 
0 0 0 0 0 0 0 0 0 
0 0 0 0 0 0 0 0 0 
0 0 0 0 0 0 0 0 0 
0 0 0 0 0 0 0 0 0 
0 0 0 0 0 0 0 0 0 
0 0 0 0 0 0 0 0 0 
0 0 0 0 0 0 0 0 0 
0 0 0 0 0 0 0 0 0 
0 0 0 0 0 0 0 0 0 
0 0 0 0 0 0 0 0 0 
0 0 0 0 0 0 0 0 0 
0 0 0 0 0 0 0 0 0 
0 0 0 0 0 0 0 0 0 
0 0 0 0 0 0 0 0 0 
0 0 0 0 0 0 0 0 0 
0 0 0 0 0 0 0 0 0 
0 0 0 0 0 0 0 0 0 
0 0 0 0 0 0 0 0 0 
0 0 0 0 0 0 0 0 0 
0 0 0 0 0 0 0 0 0 
0 0 0 0 0 0 0 0 0 
0 0 0 0 0 0 0 0 0 
0 0 0 0 0 0 0 0 0 
0 0 0 0 0 0 0 0 0 
0 0 0 0 0 0 0 0 0 
0 0 0 0 0 0 0 0 0 
0 0 0 0 0 0 0 0 0 
0 0 0 0 0 0 0 0 0 
0 0 0 0 0 0 0 0 0 
0 0 0 0 0 0 0 0 0 
0 0 0 0 0 0 0 0 0 
0 0 0 0 0 0 0 0 0 
0 0 0 0 0 0 0 0 0 
0 0 0 0 0 0 0 0 0 
0 0 0 0 0 0 0 
METADATA
INFORMATION 0

GroupIds 1 448 float
0 0 0 0 0 0 0 0 0 
0 0 0 0 0 0 0 0 0 
0 0 0 0 0 0 0 0 0 
0 0 0 0 0 0 0 0 0 
0 0 0 0 0 0 0 0 0 
0 0 0 0 0 0 0 0 0 
0 0 0 0 0 0 0 0 0 
0 0 0 0 0 0 0 0 0 
0 0 0 0 0 0 0 0 0 
0 0 0 0 0 0 0 0 0 
0 0 0 0 0 0 0 0 0 
0 0 0 0 0 0 0 0 0 
0 0 0 0 0 0 0 0 0 
0 0 0 0 0 0 0 0 0 
0 0 0 0 0 0 0 0 0 
0 0 0 0 0 0 0 0 0 
0 0 0 0 0 0 0 0 0 
0 0 0 0 0 0 0 0 0 
0 0 0 0 0 0 0 0 0 
0 0 0 0 0 0 0 0 0 
0 0 0 0 0 0 0 0 0 
0 0 0 0 0 0 0 0 0 
0 0 0 0 0 0 0 0 0 
0 0 0 0 0 0 0 0 0 
0 0 0 0 0 0 0 0 0 
0 0 0 0 0 0 0 0 0 
0 0 0 0 0 0 0 0 0 
0 0 0 0 0 0 0 0 0 
0 0 0 0 0 0 0 0 0 
0 0 0 0 0 0 0 0 0 
0 0 0 0 0 0 0 0 0 
0 0 0 0 0 0 0 0 0 
0 0 0 0 0 0 0 0 0 
0 0 0 0 0 0 0 0 0 
0 0 0 0 0 0 0 0 0 
0 0 0 0 0 0 0 0 0 
0 0 0 0 0 0 0 0 0 
0 0 0 0 0 0 0 0 0 
0 0 0 0 0 0 0 0 0 
0 0 0 0 0 0 0 0 0 
0 0 0 0 0 0 0 0 0 
0 0 0 0 0 0 0 0 0 
0 0 0 0 0 0 0 0 0 
0 0 0 0 0 0 0 0 0 
0 0 0 0 0 0 0 0 0 
0 0 0 0 0 0 0 0 0 
0 0 0 0 0 0 0 0 0 
0 0 0 0 0 0 0 0 0 
0 0 0 0 0 0 0 0 0 
0 0 0 0 0 0 0 
METADATA
INFORMATION 0

POINT_DATA 1792
NORMALS Normals float
0.3137 -0.6371 -0.704 0.2311 -0.543 -0.8072 0.4246 -0.5846 -0.6914 
0.5258 -0.659 -0.5378 0.2311 -0.543 -0.8072 0.1851 -0.4325 -0.8824 
0.3537 -0.4758 -0.8053 0.4246 -0.5846 -0.6914 0.5258 -0.659 -0.5378 
0.4246 -0.5846 -0.6914 0.5727 -0.6414 -0.5105 0.6418 -0.684 -0.3468 
0.4246 -0.5846 -0.6914 0.3537 -0.4758 -0.8053 0.5091 -0.549 -0.6628 
0.5727 -0.6414 -0.5105 0 -0.7498 -0.6616 0 -0.6303 -0.7763 
0.3137 -0.6371 -0.704 0.4434 -0.7099 -0.5471 0 -0.6303 -0.7763 
0 -0.5283 -0.8491 0.2311 -0.543 -0.8072 0.3137 -0.6371 -0.704 
0 -0.5283 -0.8491 0 -0.4188 -0.908 0.1851 -0.4325 -0.8824 
0.2311 -0.543 -0.8072 0 -0.4188 -0.908 0 -0.291 -0.9567 
0.1571 -0.3016 -0.9404 0.1851 -0.4325 -0.8824 0.1851 -0.4325 -0.8824 
0.1571 -0.3016 -0.9404 0.2994 -0.337 -0.8926 0.3537 -0.4758 -0.8053 
0.3537 -0.4758 -0.8053 0.2994 -0.337 -0.8926 0.4434 -0.4091 -0.7975 
0.5091 -0.549 -0.6628 0.5091 -0.549 -0.6628 0.4434 -0.4091 -0.7975 
0.6092 -0.5121 -0.6055 0.6374 -0.6305 -0.4428 0.5727 -0.6414 -0.5105 
0.5091 -0.549 -0.6628 0.6374 -0.6305 -0.4428 0.6593 -0.6938 -0.2896 
0.6418 -0.684 -0.3468 0.5727 -0.6414 -0.5105 0.6593 -0.6938 -0.2896 
0.6885 -0.707 -0.1616 0.7154 -0.6785 -0.1669 0.6418 -0.684 -0.3468 
0.6885 -0.707 -0.1616 0.7175 -0.6927 -0.0732 0.6505 -0.6796 -0.339 
0.5258 -0.659 -0.5378 0.6418 -0.684 -0.3468 0.7154 -0.6785 -0.1669 
0.4434 -0.7099 -0.5471 0.3137 -0.6371 -0.704 0.5258 -0.659 -0.5378 
0.6505 -0.6796 -0.339 0.7877 -0.5683 0.2378 0.811 -0.585 0 
0.8729 -0.4878 0 0.8563 -0.4706 0.2128 0.811 -0.585 0 
0.7877 -0.5683 -0.2378 0.8563 -0.4706 -0.2128 0.8729 -0.4878 0 
0.8563 -0.4706 0.2128 0.8729 -0.4878 0 0.9371 -0.3491 0 
0.9226 -0.3387 0.1843 0.8729 -0.4878 0 0.8563 -0.4706 -0.2128 
0.9226 -0.3387 -0.1843 0.9371 -0.3491 0 0.6092 -0.5121 0.6055 
0.7349 -0.6365 0.2339 0.7877 -0.5683 0.2378 0.6794 -0.4696 0.5637 
0.7349 -0.6365 0.2339 0.7533 -0.6576 0 0.811 -0.585 0 
0.7877 -0.5683 0.2378 0.7533 -0.6576 0 0.7349 -0.6365 -0.2339 
0.7877 -0.5683 -0.2378 0.811 -0.585 0 0.7349 -0.6365 -0.2339 
0.6092 -0.5121 -0.6055 0.6794 -0.4696 -0.5637 0.7877 -0.5683 -0.2378 
0.7877 -0.5683 -0.2378 0.6794 -0.4696 -0.5637 0.7706 -0.3872 -0.5061 
0.8563 -0.4706 -0.2128 0.8563 -0.4706 -0.2128 0.7706 -0.3872 -0.5061 
0.8576 -0.2689 -0.4383 0.9226 -0.3387 -0.1843 0.9226 -0.3387 -0.1843 
0.8576 -0.2689 -0.4383 0.9213 -0.1359 -0.3643 0.9744 -0.1396 -0.1764 
0.9371 -0.3491 0 0.9226 -0.3387 -0.1843 0.9744 -0.1396 -0.1764 
0.9898 -0.1423 0 0.9226 -0.3387 0.1843 0.9371 -0.3491 0 
0.9898 -0.1423 0 0.9744 -0.1396 0.1764 0.8576 -0.2689 0.4383 
0.9226 -0.3387 0.1843 0.9744 -0.1396 0.1764 0.9213 -0.1359 0.3643 
0.7706 -0.3872 0.5061 0.8563 -0.4706 0.2128 0.9226 -0.3387 0.1843 
0.8576 -0.2689 0.4383 0.6794 -0.4696 0.5637 0.7877 -0.5683 0.2378 
0.8563 -0.4706 0.2128 0.7706 -0.3872 0.5061 0.5091 -0.549 0.6628 
0.3537 -0.4758 0.8053 0.4246 -0.5846 0.6914 0.5727 -0.6414 0.5105 
0.3537 -0.4758 0.8053 0.1851 -0.4325 0.8824 0.2311 -0.543 0.8072 
0.4246 -0.5846 0.6914 0.5727 -0.6414 0.5105 0.4246 -0.5846 0.6914 
0.5258 -0.659 0.5378 0.6418 -0.684 0.3468 0.4246 -0.5846 0.6914 
0.2311 -0.543 0.8072 0.3137 -0.6371 0.704 0.5258 -0.659 0.5378 
0.6092 -0.5121 0.6055 0.4434 -0.4091 0.7975 0.5091 -0.549 0.6628 
0.6374 -0.6305 0.4428 0.4434 -0.4091 0.7975 0.2994 -0.337 0.8926 
0.3537 -0.4758 0.8053 0.5091 -0.549 0.6628 0.2994 -0.337 0.8926 
0.1571 -0.3016 0.9404 0.1851 -0.4325 0.8824 0.3537 -0.4758 0.8053 
0.1571 -0.3016 0.9404 0 -0.291 0.9567 0 -0.4188 0.908 
0.1851 -0.4325 0.8824 0.1851 -0.4325 0.8824 0 -0.4188 0.908 
0 -0.5283 0.849 0.2311 -0.543 0.8072 0.2311 -0.543 0.8072 
0 -0.5283 0.849 0 -0.6303 0.7763 0.3137 -0.6371 0.704 
0.3137 -0.6371 0.704 0 -0.6303 0.7763 0 -0.7498 0.6616 
0.4434 -0.7099 0.5471 0.5258 -0.659 0.5378 0.3137 -0.6371 0.704 
0.4434 -0.7099 0.5471 0.6505 -0.6796 0.339 0.6418 -0.684 0.3468 
0.5258 -0.659 0.5378 0.6505 -0.6796 0.339 0.7154 -0.6785 0.1669 
0.6885 -0.707 0.1616 0.6418 -0.684 0.3468 0.7154 -0.6785 0.1669 
0.7175 -0.6927 0.0732 0.6593 -0.6938 0.2896 0.5727 -0.6414 0.5105 
0.6418 -0.684 0.3468 0.6885 -0.707 0.1616 0.6374 -0.6305 0.4428 
0.5091 -0.549 0.6628 0.5727 -0.6414 0.5105 0.6593 -0.6938 0.2896 
0.6897 -0.7234 -0.0315 0.6815 -0.7252 -0.0982 0.6789 -0.7342 0 
0.6843 -0.7292 0 0.6815 -0.7252 -0.0982 0.7004 -0.6907 -0.1795 
0.7057 -0.7085 0 0.6789 -0.7342 0 0.6843 -0.7292 0 
0.6789 -0.7342 0 0.6815 -0.7252 0.0982 0.6897 -0.7234 0.0315 
0.6789 -0.7342 0 0.7057 -0.7085 0 0.7004 -0.6907 0.1795 
0.6815 -0.7252 0.0982 0.7175 -0.6927 -0.0732 0.6885 -0.707 -0.1616 
0.6897 -0.7234 -0.0315 0.7296 -0.6838 0.0048 0.6885 -0.707 -0.1616 
0.6593 -0.6938 -0.2896 0.6815 -0.7252 -0.0982 0.6897 -0.7234 -0.0315 
0.6593 -0.6938 -0.2896 0.6374 -0.6305 -0.4428 0.7004 -0.6907 -0.1795 
0.6815 -0.7252 -0.0982 0.6374 -0.6305 -0.4428 0.6092 -0.5121 -0.6055 
0.7349 -0.6365 -0.2339 0.7004 -0.6907 -0.1795 0.7004 -0.6907 -0.1795 
0.7349 -0.6365 -0.2339 0.7533 -0.6576 0 0.7057 -0.7085 0 
0.7057 -0.7085 0 0.7533 -0.6576 0 0.7349 -0.6365 0.2339 
0.7004 -0.6907 0.1795 0.7004 -0.6907 0.1795 0.7349 -0.6365 0.2339 
0.6092 -0.5121 0.6055 0.6374 -0.6305 0.4428 0.6815 -0.7252 0.0982 
0.7004 -0.6907 0.1795 0.6374 -0.6305 0.4428 0.6593 -0.6938 0.2896 
0.6897 -0.7234 0.0315 0.6815 -0.7252 0.0982 0.6593 -0.6938 0.2896 
0.6885 -0.707 0.1616 0.7296 -0.6838 -0.0048 0.6897 -0.7234 0.0315 
0.6885 -0.707 0.1616 0.7175 -0.6927 0.0732 0.7326 -0.6807 0 
0.6843 -0.7292 0 0.6897 -0.7234 0.0315 0.7296 -0.6838 -0.0048 
0.7296 -0.6838 0.0048 0.6897 -0.7234 -0.0315 0.6843 -0.7292 0 
0.7326 -0.6807 0 0.2809 -0.0107 0.9597 0.3591 -0.123 0.9251 
0.4552 -0.0539 0.8888 0.3575 0.0757 0.9308 0.3591 -0.123 0.9251 
0.5056 -0.2877 0.8134 0.6095 -0.2234 0.7606 0.4552 -0.0539 0.8888 
0.3575 0.0757 0.9308 0.4552 -0.0539 0.8888 0.6111 0.0783 0.7877 
0.5016 0.2307 0.8337 0.4552 -0.0539 0.8888 0.6095 -0.2234 0.7606 
0.7354 -0.1034 0.6697 0.6111 0.0783 0.7877 0.2204 0.019 0.9752 
0.2492 -0.0382 0.9677 0.2809 -0.0107 0.9597 0.2388 0.0661 0.9688 
0.2492 -0.0382 0.9677 0.3111 -0.1354 0.9407 0.3591 -0.123 0.9251 
0.2809 -0.0107 0.9597 0.3111 -0.1354 0.9407 0.4334 -0.2943 0.8518 
0.5056 -0.2877 0.8134 0.3591 -0.123 0.9251 0.4334 -0.2943 0.8518 
0.6092 -0.5121 0.6055 0.6794 -0.4696 0.5637 0.5056 -0.2877 0.8134 
0.5056 -0.2877 0.8134 0.6794 -0.4696 0.5637 0.7706 -0.3872 0.5061 
0.6095 -0.2234 0.7606 0.6095 -0.2234 0.7606 0.7706 -0.3872 0.5061 
0.8576 -0.2689 0.4383 0.7354 -0.1034 0.6697 0.7354 -0.1034 0.6697 
0.8576 -0.2689 0.4383 0.9213 -0.1359 0.3643 0.8796 0.0383 0.4742 
0.6111 0.0783 0.7877 0.7354 -0.1034 0.6697 0.8796 0.0383 0.4742 
0.7897 0.2401 0.5645 0.5016 0.2307 0.8337 0.6111 0.0783 0.7877 
0.7897 0.2401 0.5645 0.6764 0.4201 0.6049 0.4161 0.3482 0.84 
0.5016 0.2307 0.8337 0.6764 0.4201 0.6049 0.5602 0.5604 0.61 
0.2988 0.1698 0.9391 0.3575 0.0757 0.9308 0.5016 0.2307 0.8337 
0.4161 0.3482 0.84 0.2388 0.0661 0.9688 0.2809 -0.0107 0.9597 
0.3575 0.0757 0.9308 0.2988 0.1698 0.9391 0.9693 0.1078 -0.2211 
0.8994 0.3438 -0.2697 0.9283 0.3717 0 0.993 0.1181 0 
0.8994 0.3438 -0.2697 0.7858 0.5445 -0.2931 0.8149 0.5796 0 
0.9283 0.3717 0 0.993 0.1181 0 0.9283 0.3717 0 
0.8994 0.3438 0.2697 0.9693 0.1078 0.2211 0.9283 0.3717 0 
0.8149 0.5796 0 0.7858 0.5445 0.2931 0.8994 0.3438 0.2697 
0.9213 -0.1359 -0.3643 0.8796 0.0383 -0.4742 0.9693 0.1078 -0.2211 
0.9744 -0.1396 -0.1764 0.8796 0.0383 -0.4742 0.7897 0.2401 -0.5645 
0.8994 0.3438 -0.2697 0.9693 0.1078 -0.2211 0.7897 0.2401 -0.5645 
0.6764 0.4201 -0.6049 0.7858 0.5445 -0.2931 0.8994 0.3438 -0.2697 
0.6764 0.4201 -0.6049 0.5602 0.5604 -0.61 0.651 0.6983 -0.2975 
0.7858 0.5445 -0.2931 0.7858 0.5445 -0.2931 0.651 0.6983 -0.2975 
0.6754 0.7374 0 0.8149 0.5796 0 0.8149 0.5796 0 
0.6754 0.7374 0 0.651 0.6983 0.2975 0.7858 0.5445 0.2931 
0.7858 0.5445 0.2931 0.651 0.6983 0.2975 0.5602 0.5604 0.61 
0.6764 0.4201 0.6049 0.8994 0.3438 0.2697 0.7858 0.5445 0.2931 
0.6764 0.4201 0.6049 0.7897 0.2401 0.5645 0.9693 0.1078 0.2211 
0.8994 0.3438 0.2697 0.7897 0.2401 0.5645 0.8796 0.0383 0.4742 
0.9744 -0.1396 0.1764 0.9693 0.1078 0.2211 0.8796 0.0383 0.4742 
0.9213 -0.1359 0.3643 0.9898 -0.1423 0 0.993 0.1181 0 
0.9693 0.1078 0.2211 0.9744 -0.1396 0.1764 0.9744 -0.1396 -0.1764 
0.9693 0.1078 -0.2211 0.993 0.1181 0 0.9898 -0.1423 0 
0.4952 0.8183 -0.2916 0.2967 0.9147 -0.2742 0.3091 0.951 0 
0.5135 0.8581 0 0.2967 0.9147 -0.2742 0.038 0.9708 -0.2368 
0.0338 0.9994 0 0.3091 0.951 0 0.5135 0.8581 0 
0.3091 0.951 0 0.2967 0.9147 0.2742 0.4952 0.8183 0.2916 
0.3091 0.951 0 0.0338 0.9994 0 0.038 0.9708 0.2368 
0.2967 0.9147 0.2742 0.5602 0.5604 -0.61 0.426 0.677 -0.6002 
0.4952 0.8183 -0.2916 0.651 0.6983 -0.2975 0.426 0.677 -0.6002 
0.2427 0.7845 -0.5706 0.2967 0.9147 -0.2742 0.4952 0.8183 -0.2916 
0.2427 0.7845 -0.5706 0.0044 0.8636 -0.5041 0.038 0.9708 -0.2368 
0.2967 0.9147 -0.2742 0.0044 0.8636 -0.5041 -0.2357 0.8858 -0.3996 
-0.2735 0.9401 -0.2035 0.038 0.9708 -0.2368 0.038 0.9708 -0.2368 
-0.2735 0.9401 -0.2035 -0.289 0.9573 0 0.0338 0.9994 0 
0.0338 0.9994 0 -0.289 0.9573 0 -0.2735 0.9401 0.2035 
0.038 0.9708 0.2368 0.038 0.9708 0.2368 -0.2735 0.9401 0.2035 
-0.2357 0.8858 0.3997 0.0044 0.8636 0.5041 0.2967 0.9147 0.2742 
0.038 0.9708 0.2368 0.0044 0.8636 0.5041 0.2427 0.7845 0.5706 
0.4952 0.8183 0.2916 0.2967 0.9147 0.2742 0.2427 0.7845 0.5706 
0.426 0.677 0.6002 0.651 0.6983 0.2975 0.4952 0.8183 0.2916 
0.426 0.677 0.6002 0.5602 0.5604 0.61 0.6754 0.7374 0 
0.5135 0.8581 0 0.4952 0.8183 0.2916 0.651 0.6983 0.2975 
0.651 0.6983 -0.2975 0.4952 0.8183 -0.2916 0.5135 0.8581 0 
0.6754 0.7374 0 0.181 0.1303 -0.9748 0.0738 0.2308 -0.9702 
0.0822 0.3765 -0.9228 0.2231 0.257 -0.9403 0.0738 0.2308 -0.9702 
-0.0947 0.4256 -0.8999 -0.1472 0.5522 -0.8206 0.0822 0.3765 -0.9228 
0.2231 0.257 -0.9403 0.0822 0.3765 -0.9228 0.1501 0.5735 -0.8053 
0.3142 0.4541 -0.8337 0.0822 0.3765 -0.9228 -0.1472 0.5522 -0.8206 
-0.0927 0.6972 -0.7109 0.1501 0.5735 -0.8053 0.2204 0.019 -0.9752 
0.1835 0.052 -0.9816 0.181 0.1303 -0.9748 0.2388 0.0661 -0.9688 
0.1835 0.052 -0.9816 0.1097 0.1215 -0.9865 0.0738 0.2308 -0.9702 
0.181 0.1303 -0.9748 0.1097 0.1215 -0.9865 -0.0082 0.2702 -0.9627 
-0.0947 0.4256 -0.8999 0.0738 0.2308 -0.9702 -0.0082 0.2702 -0.9627 
0 0.5395 -0.8419 -0.3079 0.699 -0.6454 -0.0947 0.4256 -0.8999 
-0.0947 0.4256 -0.8999 -0.3079 0.699 -0.6454 -0.4071 0.7291 -0.5501 
-0.1472 0.5522 -0.8206 -0.1472 0.5522 -0.8206 -0.4071 0.7291 -0.5501 
-0.357 0.7998 -0.4826 -0.0927 0.6972 -0.7109 -0.0927 0.6972 -0.7109 
-0.357 0.7998 -0.4826 -0.2357 0.8858 -0.3996 0.0044 0.8636 -0.5041 
0.1501 0.5735 -0.8053 -0.0927 0.6972 -0.7109 0.0044 0.8636 -0.5041 
0.2427 0.7845 -0.5706 0.3142 0.4541 -0.8337 0.1501 0.5735 -0.8053 
0.2427 0.7845 -0.5706 0.426 0.677 -0.6002 0.4161 0.3482 -0.84 
0.3142 0.4541 -0.8337 0.426 0.677 -0.6002 0.5602 0.5604 -0.61 
0.2988 0.1698 -0.9391 0.2231 0.257 -0.9403 0.3142 0.4541 -0.8337 
0.4161 0.3482 -0.84 0.2388 0.0661 -0.9688 0.181 0.1303 -0.9748 
0.2231 0.257 -0.9403 0.2988 0.1698 -0.9391 0.5056 -0.2877 -0.8134 
0.3591 -0.123 -0.9251 0.4552 -0.0539 -0.8888 0.6095 -0.2234 -0.7606 
0.3591 -0.123 -0.9251 0.2809 -0.0107 -0.9597 0.3575 0.0757 -0.9308 
0.4552 -0.0539 -0.8888 0.6095 -0.2234 -0.7606 0.4552 -0.0539 -0.8888 
0.6111 0.0783 -0.7877 0.7354 -0.1034 -0.6697 0.4552 -0.0539 -0.8888 
0.3575 0.0757 -0.9308 0.5016 0.2307 -0.8337 0.6111 0.0783 -0.7877 
0.6092 -0.5121 -0.6055 0.4334 -0.2943 -0.8518 0.5056 -0.2877 -0.8134 
0.6794 -0.4696 -0.5637 0.4334 -0.2943 -0.8518 0.3111 -0.1354 -0.9407 
0.3591 -0.123 -0.9251 0.5056 -0.2877 -0.8134 0.3111 -0.1354 -0.9407 
0.2492 -0.0382 -0.9677 0.2809 -0.0107 -0.9597 0.3591 -0.123 -0.9251 
0.2492 -0.0382 -0.9677 0.2204 0.019 -0.9752 0.2388 0.0661 -0.9688 
0.2809 -0.0107 -0.9597 0.2809 -0.0107 -0.9597 0.2388 0.0661 -0.9688 
0.2988 0.1698 -0.9391 0.3575 0.0757 -0.9308 0.3575 0.0757 -0.9308 
0.2988 0.1698 -0.9391 0.4161 0.3482 -0.84 0.5016 0.2307 -0.8337 
0.5016 0.2307 -0.8337 0.4161 0.3482 -0.84 0.5602 0.5604 -0.61 
0.6764 0.4201 -0.6049 0.6111 0.0783 -0.7877 0.5016 0.2307 -0.8337 
0.6764 0.4201 -0.6049 0.7897 0.2401 -0.5645 0.7354 -0.1034 -0.6697 
0.6111 0.0783 -0.7877 0.7897 0.2401 -0.5645 0.8796 0.0383 -0.4742 
0.8576 -0.2689 -0.4383 0.7354 -0.1034 -0.6697 0.8796 0.0383 -0.4742 
0.9213 -0.1359 -0.3643 0.7706 -0.3872 -0.5061 0.6095 -0.2234 -0.7606 
0.7354 -0.1034 -0.6697 0.8576 -0.2689 -0.4383 0.6794 -0.4696 -0.5637 
0.5056 -0.2877 -0.8134 0.6095 -0.2234 -0.7606 0.7706 -0.3872 -0.5061 
-0.4383 0.8582 -0.267 -0.4538 0.8911 0 -0.5865 0.8099 0 
-0.553 0.7999 -0.2328 -0.4538 0.8911 0 -0.4383 0.8582 0.267 
-0.553 0.7999 0.2328 -0.5865 0.8099 0 -0.553 0.7999 -0.2328 
-0.5865 0.8099 0 -0.5196 0.8544 0 -0.4943 0.8432 -0.2114 
-0.5865 0.8099 0 -0.553 0.7999 0.2328 -0.4943 0.8432 0.2114 
-0.5196 0.8544 0 0 0.5395 -0.8419 0 0.9474 -0.3198 
-0.4383 0.8582 -0.267 -0.3079 0.699 -0.6454 0 0.9474 -0.3198 
0 1 0 -0.4538 0.8911 0 -0.4383 0.8582 -0.267 
0 1 0 0 0.9474 0.3198 -0.4383 0.8582 0.267 
-0.4538 0.8911 0 0 0.9474 0.3198 0 0.5395 0.8419 
-0.3079 0.699 0.6454 -0.4383 0.8582 0.267 -0.4383 0.8582 0.267 
-0.3079 0.699 0.6454 -0.4071 0.7291 0.5501 -0.553 0.7999 0.2328 
-0.553 0.7999 0.2328 -0.4071 0.7291 0.5501 -0.357 0.7998 0.4826 
-0.4943 0.8432 0.2114 -0.4943 0.8432 0.2114 -0.357 0.7998 0.4826 
-0.2357 0.8858 0.3997 -0.2735 0.9401 0.2035 -0.5196 0.8544 0 
-0.4943 0.8432 0.2114 -0.2735 0.9401 0.2035 -0.289 0.9573 0 
-0.4943 0.8432 -0.2114 -0.5196 0.8544 0 -0.289 0.9573 0 
-0.2735 0.9401 -0.2035 -0.357 0.7998 -0.4826 -0.4943 0.8432 -0.2114 
-0.2735 0.9401 -0.2035 -0.2357 0.8858 -0.3996 -0.4071 0.7291 -0.5501 
-0.553 0.7999 -0.2328 -0.4943 0.8432 -0.2114 -0.357 0.7998 -0.4826 
-0.3079 0.699 -0.6454 -0.4383 0.8582 -0.267 -0.553 0.7999 -0.2328 
-0.4071 0.7291 -0.5501 -0.0947 0.4256 0.8999 0.0738 0.2308 0.9702 
0.0822 0.3765 0.9228 -0.1472 0.5522 0.8206 0.0738 0.2308 0.9702 
0.181 0.1303 0.9748 0.2231 0.257 0.9403 0.0822 0.3765 0.9228 
-0.1472 0.5522 0.8206 0.0822 0.3765 0.9228 0.1501 0.5735 0.8053 
-0.0927 0.6972 0.7109 0.0822 0.3765 0.9228 0.2231 0.257 0.9403 
0.3142 0.454 0.8337 0.1501 0.5735 0.8053 0 0.5395 0.8419 
-0.0082 0.2702 0.9627 -0.0947 0.4256 0.8999 -0.3079 0.699 0.6454 
-0.0082 0.2702 0.9627 0.1097 0.1215 0.9865 0.0738 0.2308 0.9702 
-0.0947 0.4256 0.8999 0.1097 0.1215 0.9865 0.1835 0.052 0.9816 
0.181 0.1303 0.9748 0.0738 0.2308 0.9702 0.1835 0.052 0.9816 
0.2204 0.019 0.9752 0.2388 0.0661 0.9688 0.181 0.1303 0.9748 
0.181 0.1303 0.9748 0.2388 0.0661 0.9688 0.2988 0.1698 0.9391 
0.2231 0.257 0.9403 0.2231 0.257 0.9403 0.2988 0.1698 0.9391 
0.4161 0.3482 0.84 0.3142 0.454 0.8337 0.3142 0.454 0.8337 
0.4161 0.3482 0.84 0.5602 0.5604 0.61 0.426 0.677 0.6002 
0.1501 0.5735 0.8053 0.3142 0.454 0.8337 0.426 0.677 0.6002 
0.2427 0.7845 0.5706 -0.0927 0.6972 0.7109 0.1501 0.5735 0.8053 
0.2427 0.7845 0.5706 0.0044 0.8636 0.5041 -0.357 0.7998 0.4826 
-0.0927 0.6972 0.7109 0.0044 0.8636 0.5041 -0.2357 0.8858 0.3997 
-0.4071 0.7291 0.5501 -0.1472 0.5522 0.8206 -0.0927 0.6972 0.7109 
-0.357 0.7998 0.4826 -0.3079 0.699 0.6454 -0.0947 0.4256 0.8999 
-0.1472 0.5522 0.8206 -0.4071 0.7291 0.5501 0.5709 -0.7593 -0.3121 
0.7516 -0.6443 -0.1411 0.7881 -0.6155 0 0.6255 -0.7802 0 
0.7516 -0.6443 -0.1411 0.768 -0.6396 -0.0313 0.7855 -0.6188 0 
0.7881 -0.6155 0 0.6255 -0.7802 0 0.7881 -0.6155 0 
0.7516 -0.6443 0.1411 0.5709 -0.7593 0.3121 0.7881 -0.6155 0 
0.7855 -0.6188 0 0.768 -0.6396 0.0313 0.7516 -0.6443 0.1411 
0 -0.7498 -0.6616 0.4434 -0.7099 -0.5471 0.5709 -0.7593 -0.3121 
0 -0.9132 -0.4074 0.4434 -0.7099 -0.5471 0.6505 -0.6796 -0.339 
0.7516 -0.6443 -0.1411 0.5709 -0.7593 -0.3121 0.6505 -0.6796 -0.339 
0.7154 -0.6785 -0.1669 0.768 -0.6396 -0.0313 0.7516 -0.6443 -0.1411 
0.7154 -0.6785 -0.1669 0.7175 -0.6927 -0.0732 0.7296 -0.6838 0.0048 
0.768 -0.6396 -0.0313 0.768 -0.6396 -0.0313 0.7296 -0.6838 0.0048 
0.7326 -0.6807 0 0.7855 -0.6188 0 0.7855 -0.6188 0 
0.7326 -0.6807 0 0.7296 -0.6838 -0.0048 0.768 -0.6396 0.0313 
0.768 -0.6396 0.0313 0.7296 -0.6838 -0.0048 0.7175 -0.6927 0.0732 
0.7154 -0.6785 0.1669 0.7516 -0.6443 0.1411 0.768 -0.6396 0.0313 
0.7154 -0.6785 0.1669 0.6505 -0.6796 0.339 0.5709 -0.7593 0.3121 
0.7516 -0.6443 0.1411 0.6505 -0.6796 0.339 0.4434 -0.7099 0.5471 
0 -0.9132 0.4074 0.5709 -0.7593 0.3121 0.4434 -0.7099 0.5471 
0 -0.7498 0.6616 0 -1 0 0.6255 -0.7802 0 
0.5709 -0.7593 0.3121 0 -0.9132 0.4074 0 -0.9132 -0.4074 
0.5709 -0.7593 -0.3121 0.6255 -0.7802 0 0 -1 0 
0.3538 -0.2459 -0.9024 0.2498 -0.1932 -0.9488 0.2035 -0.0711 -0.9765 
0.2708 -0.1093 -0.9564 0.2498 -0.1932 -0.9488 0.1347 -0.1638 -0.9772 
0.1092 -0.036 -0.9933 0.2035 -0.0711 -0.9765 0.2708 -0.1093 -0.9564 
0.2035 -0.0711 -0.9765 0.158 0.0294 -0.987 0.219 -0.0168 -0.9756 
0.2035 -0.0711 -0.9765 0.1092 -0.036 -0.9933 0.0609 0.1007 -0.993 
0.158 0.0294 -0.987 0.6092 -0.5121 -0.6055 0.4434 -0.4091 -0.7975 
0.3538 -0.2459 -0.9024 0.4334 -0.2943 -0.8518 0.4434 -0.4091 -0.7975 
0.2994 -0.337 -0.8926 0.2498 -0.1932 -0.9488 0.3538 -0.2459 -0.9024 
0.2994 -0.337 -0.8926 0.1571 -0.3016 -0.9404 0.1347 -0.1638 -0.9772 
0.2498 -0.1932 -0.9488 0.1571 -0.3016 -0.9404 0 -0.291 -0.9567 
0 -0.1537 -0.9881 0.1347 -0.1638 -0.9772 0.1347 -0.1638 -0.9772 
0 -0.1537 -0.9881 0 -0.0203 -0.9998 0.1092 -0.036 -0.9933 
0.1092 -0.036 -0.9933 0 -0.0203 -0.9998 0 0.1464 -0.9892 
0.0609 0.1007 -0.993 0.0609 0.1007 -0.993 0 0.1464 -0.9892 
0 0.5395 -0.8419 -0.0082 0.2702 -0.9627 0.158 0.0294 -0.987 
0.0609 0.1007 -0.993 -0.0082 0.2702 -0.9627 0.1097 0.1215 -0.9865 
0.219 -0.0168 -0.9756 0.158 0.0294 -0.987 0.1097 0.1215 -0.9865 
0.1835 0.052 -0.9816 0.2492 -0.0382 -0.9677 0.219 -0.0168 -0.9756 
0.1835 0.052 -0.9816 0.2204 0.019 -0.9752 0.3111 -0.1354 -0.9407 
0.2708 -0.1093 -0.9564 0.219 -0.0168 -0.9756 0.2492 -0.0382 -0.9677 
0.4334 -0.2943 -0.8518 0.3538 -0.2459 -0.9024 0.2708 -0.1093 -0.9564 
0.3111 -0.1354 -0.9407 0.1347 -0.1638 0.9772 0.2498 -0.1932 0.9488 
0.2035 -0.0711 0.9765 0.1092 -0.036 0.9933 0.2498 -0.1932 0.9488 
0.3538 -0.2459 0.9024 0.2708 -0.1093 0.9564 0.2035 -0.0711 0.9765 