# vtk DataFile Version 4.2
vtk output
ASCII
DATASET POLYDATA
FIELD FieldData 1
MaterialNames 1 1 string
None

POINTS 1792 float
0.029663 -0.218253 -0.082635 0.040869 -0.167196 -0.11591 0.080362 -0.155208 -0.107275 
0.058757 -0.203252 -0.077389 0.040869 -0.167196 -0.11591 0.051928 -0.104844 -0.147512 
0.102964 -0.095836 -0.1361 0.080362 -0.155208 -0.107275 0.058757 -0.203252 -0.077389 
0.080362 -0.155208 -0.107275 0.116378 -0.139953 -0.092183 0.085853 -0.184363 -0.067811 
0.080362 -0.155208 -0.107275 0.102964 -0.095836 -0.1361 0.151392 -0.083072 -0.117013 
0.116378 -0.139953 -0.092183 -0 -0.262968 -0.05201 0 -0.224344 -0.084276 
0.029663 -0.218253 -0.082635 0.020413 -0.255805 -0.051296 0 -0.224344 -0.084276 
-0 -0.171972 -0.118703 0.040869 -0.167196 -0.11591 0.029663 -0.218253 -0.082635 
-0 -0.171972 -0.118703 0 -0.108161 -0.15138 0.051928 -0.104844 -0.147512 
0.040869 -0.167196 -0.11591 0 -0.108161 -0.15138 -0 -0.035484 -0.178188 
0.06036 -0.03373 -0.173577 0.051928 -0.104844 -0.147512 0.051928 -0.104844 -0.147512 
0.06036 -0.03373 -0.173577 0.120448 -0.027798 -0.160677 0.102964 -0.095836 -0.1361 
0.102964 -0.095836 -0.1361 0.120448 -0.027798 -0.160677 0.180286 -0.016317 -0.140496 
0.151392 -0.083072 -0.117013 0.151392 -0.083072 -0.117013 0.180286 -0.016317 -0.140496 
0.2451 0.006202 -0.10951 0.190636 -0.071615 -0.087892 0.116378 -0.139953 -0.092183 
0.151392 -0.083072 -0.117013 0.190636 -0.071615 -0.087892 0.143918 -0.126664 -0.06895 
0.085853 -0.184363 -0.067811 0.116378 -0.139953 -0.092183 0.143918 -0.126664 -0.06895 
0.105981 -0.168708 -0.052142 0.06395 -0.214699 -0.044788 0.085853 -0.184363 -0.067811 
0.105981 -0.168708 -0.052142 0.081968 -0.194971 -0.040222 0.041719 -0.237921 -0.048943 
0.058757 -0.203252 -0.077389 0.085853 -0.184363 -0.067811 0.06395 -0.214699 -0.044788 
0.020413 -0.255805 -0.051296 0.029663 -0.218253 -0.082635 0.058757 -0.203252 -0.077389 
0.041719 -0.237921 -0.048943 0.31562 0.055364 0.054483 0.318407 0.049726 -0 
0.358148 0.111956 -0 0.355918 0.117682 0.050894 0.318407 0.049726 -0 
0.31562 0.055364 -0.054483 0.355918 0.117682 -0.050894 0.358148 0.111956 -0 
0.355918 0.117682 0.050894 0.358148 0.111956 -0 0.386004 0.171479 -0 
0.383004 0.174985 0.045755 0.358148 0.111956 -0 0.355918 0.117682 -0.050894 
0.383004 0.174985 -0.045755 0.386004 0.171479 -0 0.2451 0.006202 0.10951 
0.265122 -0.008453 0.054233 0.31562 0.055364 0.054483 0.307657 0.0776 0.101176 
0.265122 -0.008453 0.054233 0.269642 -0.011544 -0 0.318407 0.049726 -0 
0.31562 0.055364 0.054483 0.269642 -0.011544 -0 0.265122 -0.008453 -0.054233 
0.31562 0.055364 -0.054483 0.318407 0.049726 -0 0.265122 -0.008453 -0.054233 
0.2451 0.006202 -0.10951 0.307657 0.0776 -0.101176 0.31562 0.055364 -0.054483 
0.31562 0.055364 -0.054483 0.307657 0.0776 -0.101176 0.348976 0.137811 -0.093703 
0.355918 0.117682 -0.050894 0.355918 0.117682 -0.050894 0.348976 0.137811 -0.093703 
0.375709 0.189717 -0.083373 0.383004 0.174985 -0.045755 0.383004 0.174985 -0.045755 
0.375709 0.189717 -0.083373 0.388586 0.225078 -0.072186 0.396769 0.22662 -0.04273 
0.386004 0.171479 -0 0.383004 0.174985 -0.045755 0.396769 0.22662 -0.04273 
0.40092 0.227453 -0 0.383004 0.174985 0.045755 0.386004 0.171479 -0 
0.40092 0.227453 -0 0.396769 0.22662 0.04273 0.375709 0.189717 0.083373 
0.383004 0.174985 0.045755 0.396769 0.22662 0.04273 0.388586 0.225078 0.072186 
0.348976 0.137811 0.093703 0.355918 0.117682 0.050894 0.383004 0.174985 0.045755 
0.375709 0.189717 0.083373 0.307657 0.0776 0.101176 0.31562 0.055364 0.054483 
0.355918 0.117682 0.050894 0.348976 0.137811 0.093703 0.151392 -0.083072 0.117013 
0.102964 -0.095836 0.1361 0.080362 -0.155208 0.107275 0.116378 -0.139953 0.092183 
0.102964 -0.095836 0.1361 0.051928 -0.104844 0.147512 0.040869 -0.167196 0.11591 
0.080362 -0.155208 0.107275 0.116378 -0.139953 0.092183 0.080362 -0.155208 0.107275 
0.058757 -0.203252 0.077389 0.085853 -0.184363 0.067811 0.080362 -0.155208 0.107275 
0.040869 -0.167196 0.11591 0.029663 -0.218253 0.082635 0.058757 -0.203252 0.077389 
0.2451 0.006202 0.10951 0.180286 -0.016317 0.140496 0.151392 -0.083072 0.117013 
0.190636 -0.071615 0.087892 0.180286 -0.016317 0.140496 0.120448 -0.027798 0.160677 
0.102964 -0.095836 0.1361 0.151392 -0.083072 0.117013 0.120448 -0.027798 0.160677 
0.06036 -0.03373 0.173577 0.051928 -0.104844 0.147512 0.102964 -0.095836 0.1361 
0.06036 -0.03373 0.173577 -0 -0.035484 0.178188 -0 -0.108161 0.15138 
0.051928 -0.104844 0.147512 0.051928 -0.104844 0.147512 -0 -0.108161 0.15138 
-0 -0.171972 0.118703 0.040869 -0.167196 0.11591 0.040869 -0.167196 0.11591 
-0 -0.171972 0.118703 -0 -0.224344 0.084276 0.029663 -0.218253 0.082635 
0.029663 -0.218253 0.082635 -0 -0.224344 0.084276 -0 -0.262968 0.05201 
0.020413 -0.255805 0.051296 0.058757 -0.203252 0.077389 0.029663 -0.218253 0.082635 
0.020413 -0.255805 0.051296 0.041719 -0.237921 0.048943 0.085853 -0.184363 0.067811 
0.058757 -0.203252 0.077389 0.041719 -0.237921 0.048943 0.06395 -0.214699 0.044789 
0.105981 -0.168708 0.052142 0.085853 -0.184363 0.067811 0.06395 -0.214699 0.044789 
0.081968 -0.194971 0.040222 0.143918 -0.126664 0.06895 0.116378 -0.139953 0.092183 
0.085853 -0.184363 0.067811 0.105981 -0.168708 0.052142 0.190636 -0.071615 0.087892 
0.151392 -0.083072 0.117013 0.116378 -0.139953 0.092183 0.143918 -0.126664 0.06895 
0.114335 -0.162246 -0.028376 0.158825 -0.119765 -0.03692 0.162853 -0.117775 0 
0.115794 -0.160779 0 0.158825 -0.119765 -0.03692 0.210733 -0.068333 -0.046701 
0.215857 -0.067873 -0 0.162853 -0.117775 0 0.115794 -0.160779 0 
0.162853 -0.117775 0 0.158825 -0.119765 0.03692 0.114335 -0.162246 0.028376 
0.162853 -0.117775 0 0.215857 -0.067873 -0 0.210733 -0.068333 0.046701 
0.158825 -0.119765 0.03692 0.081968 -0.194971 -0.040222 0.105981 -0.168708 -0.052142 
0.114335 -0.162246 -0.028376 0.07911 -0.197911 -0.023028 0.105981 -0.168708 -0.052142 
0.143918 -0.126664 -0.06895 0.158825 -0.119765 -0.03692 0.114335 -0.162246 -0.028376 
0.143918 -0.126664 -0.06895 0.190636 -0.071615 -0.087892 0.210733 -0.068333 -0.046701 
0.158825 -0.119765 -0.03692 0.190636 -0.071615 -0.087892 0.2451 0.006202 -0.10951 
0.265122 -0.008453 -0.054233 0.210733 -0.068333 -0.046701 0.210733 -0.068333 -0.046701 
0.265122 -0.008453 -0.054233 0.269642 -0.011544 -0 0.215857 -0.067873 -0 
0.215857 -0.067873 -0 0.269642 -0.011544 -0 0.265122 -0.008453 0.054233 
0.210733 -0.068333 0.046701 0.210733 -0.068333 0.046701 0.265122 -0.008453 0.054233 
0.2451 0.006202 0.10951 0.190636 -0.071615 0.087892 0.158825 -0.119765 0.03692 
0.210733 -0.068333 0.046701 0.190636 -0.071615 0.087892 0.143918 -0.126664 0.06895 
0.114335 -0.162246 0.028376 0.158825 -0.119765 0.03692 0.143918 -0.126664 0.06895 
0.105981 -0.168708 0.052142 0.07911 -0.197911 0.023028 0.114335 -0.162246 0.028376 
0.105981 -0.168708 0.052142 0.081968 -0.194971 0.040222 0.077408 -0.199024 0 
0.115794 -0.160779 0 0.114335 -0.162246 0.028376 0.07911 -0.197911 0.023028 
0.07911 -0.197911 -0.023028 0.114335 -0.162246 -0.028376 0.115794 -0.160779 0 
0.077408 -0.199024 0 0.268565 0.227333 0.158089 0.286467 0.175988 0.149024 
0.323592 0.220471 0.138474 0.301247 0.267879 0.147099 0.286467 0.175988 0.149024 
0.298962 0.122384 0.131835 0.338798 0.174332 0.12217 0.323592 0.220471 0.138474 
0.301247 0.267879 0.147099 0.323592 0.220471 0.138474 0.352267 0.264506 0.121759 
0.328658 0.30932 0.128831 0.323592 0.220471 0.138474 0.338798 0.174332 0.12217 
0.366839 0.221883 0.107736 0.352267 0.264506 0.121759 0.221118 0.238423 0.16989 
0.23054 0.19828 0.16702 0.268565 0.227333 0.158089 0.242728 0.269394 0.164002 
0.23054 0.19828 0.16702 0.241154 0.141405 0.159166 0.286467 0.175988 0.149024 
0.268565 0.227333 0.158089 0.241154 0.141405 0.159166 0.248202 0.077848 0.142895 
0.298962 0.122384 0.131835 0.286467 0.175988 0.149024 0.248202 0.077848 0.142895 
0.2451 0.006202 0.10951 0.307657 0.0776 0.101176 0.298962 0.122384 0.131835 
0.298962 0.122384 0.131835 0.307657 0.0776 0.101176 0.348976 0.137811 0.093703 
0.338798 0.174332 0.12217 0.338798 0.174332 0.12217 0.348976 0.137811 0.093703 
0.375709 0.189717 0.083373 0.366839 0.221883 0.107736 0.366839 0.221883 0.107736 
0.375709 0.189717 0.083373 0.388586 0.225078 0.072186 0.385341 0.257159 0.083724 
0.352267 0.264506 0.121759 0.366839 0.221883 0.107736 0.385341 0.257159 0.083724 
0.372831 0.300038 0.093565 0.328658 0.30932 0.128831 0.352267 0.264506 0.121759 
0.372831 0.300038 0.093565 0.349329 0.343707 0.098456 0.295801 0.350807 0.132687 
0.328658 0.30932 0.128831 0.349329 0.343707 0.098456 0.316059 0.383678 0.100604 
0.270147 0.310485 0.152524 0.301247 0.267879 0.147099 0.328658 0.30932 0.128831 
0.295801 0.350807 0.132687 0.242728 0.269394 0.164002 0.268565 0.227333 0.158089 
0.301247 0.267879 0.147099 0.270147 0.310485 0.152524 0.397421 0.274704 -0.046115 
0.38556 0.321093 -0.050949 0.38996 0.327756 -0 0.401972 0.279533 -0 
0.38556 0.321093 -0.050949 0.361966 0.364956 -0.05344 0.366182 0.371984 -0 
0.38996 0.327756 -0 0.401972 0.279533 -0 0.38996 0.327756 -0 
0.38556 0.321093 0.050949 0.397421 0.274704 0.046115 0.38996 0.327756 -0 
0.366182 0.371984 -0 0.361966 0.364956 0.05344 0.38556 0.321093 0.050949 
0.388586 0.225078 -0.072186 0.385341 0.257159 -0.083724 0.397421 0.274704 -0.046115 
0.396769 0.22662 -0.04273 0.385341 0.257159 -0.083724 0.372831 0.300038 -0.093565 
0.38556 0.321093 -0.050949 0.397421 0.274704 -0.046115 0.372831 0.300038 -0.093565 
0.349329 0.343707 -0.098456 0.361966 0.364956 -0.05344 0.38556 0.321093 -0.050949 
0.349329 0.343707 -0.098456 0.316059 0.383678 -0.100604 0.32856 0.404048 -0.054356 
0.361966 0.364956 -0.05344 0.361966 0.364956 -0.05344 0.32856 0.404048 -0.054356 
0.332705 0.41082 -0 0.366182 0.371984 -0 0.366182 0.371984 -0 
0.332705 0.41082 -0 0.32856 0.404048 0.054356 0.361966 0.364956 0.05344 
0.361966 0.364956 0.05344 0.32856 0.404048 0.054356 0.316059 0.383678 0.100604 
0.349329 0.343707 0.098456 0.38556 0.321093 0.050949 0.361966 0.364956 0.05344 
[...]
CELL_DATA 448
FIELD FieldData 2
MaterialIds 1 448 int
0 0 0 0 0 0 0 0 0 
0 0 0 0 0 0 0 0 0 
0 0 0 0 0 0 0 0 0 
0 0 0 0 0 0 0 0 0 
0 0 0 0 0 0 0 0 0 
0 0 0 0 0 0 0 0 0 
0 0 0 0 0 0 0 0 0 
0 0 0 0 0 0 0 0 0 
0 0 0 0 0 0 0 0 0 
0 0 0 0 0 0 0 0 0 
0 0 0 0 0 0 0 0 0 
0 0 0 0 0 0 0 0 0 
0 0 0 0 0 0 0 0 0 
0 0 0 0 0 0 0 0 0 
0 0 0 0 0 0 0 0 0 
0 0 0 0 0 0 0 0 0 
0 0 0 0 0 0 0 0 0 
0 0 0 0 0 0 0 0 0 
0 0 0 0 0 0 0 0 0 
0 0 0 0 0 0 0 0 0 
0 0 0 0 0 0 0 0 0 
0 0 0 0 0 0 0 0 0 
0 0 0 0 0 0 0 0 0 
0 0 0 0 0 0 0 0 0 
0 0 0 0 0 0 0 0 0 
0 0 0 0 0 0 0 0 0 
0 0 0 0 0 0 0 0 0 
0 0 0 0 0 0 0 0 0 
0 0 0 0 0 0 0 0 0 
0 0 0 0 0 0 0 0 0 
0 0 0 0 0 0 0 0 0 
0 0 0 0 0 0 0 0 0 
0 0 0 0 0 0 0 0 0 
0 0 0 0 0 0 0 0 0 
0 0 0 0 0 0 0 0 0 
0 0 0 0 0 0 0 0 0 
0 0 0 0 0 0 0 0 0 
0 0 0 0 0 0 0 0 0 
0 0 0 0 0 0 0 0 0 
0 0 0 0 0 0 0 0 0 
0 0 0 0 0 0 0 0 0 
0 0 0 0 0 0 0 0 0 
0 0 0 0 0 0 0 0 0 
0 0 0 0 0 0 0 0 0 
0 0 0 0 0 0 0 0 0 
0 0 0 0 0 0 0 0 0 
0 0 0 0 0 0 0 0 0 
0 0 0 0 0 0 0 0 0 
0 0 0 0 0 0 0 0 0 
0 0 0 0 0 0 0 
METADATA
INFORMATION 0

GroupIds 1 448 float
0 0 0 0 0 0 0 0 0 
0 0 0 0 0 0 0 0 0 
0 0 0 0 0 0 0 0 0 
0 0 0 0 0 0 0 0 0 
0 0 0 0 0 0 0 0 0 
0 0 0 0 0 0 0 0 0 
0 0 0 0 0 0 0 0 0 
0 0 0 0 0 0 0 0 0 
0 0 0 0 0 0 0 0 0 
0 0 0 0 0 0 0 0 0 
0 0 0 0 0 0 0 0 0 
0 0 0 0 0 0 0 0 0 
0 0 0 0 0 0 0 0 0 
0 0 0 0 0 0 0 0 0 
0 0 0 0 0 0 0 0 0 
0 0 0 0 0 0 0 0 0 
0 0 0 0 0 0 0 0 0 
0 0 0 0 0 0 0 0 0 
0 0 0 0 0 0 0 0 0 
0 0 0 0 0 0 0 0 0 
0 0 0 0 0 0 0 0 0 
0 0 0 0 0 0 0 0 0 
0 0 0 0 0 0 0 0 0 
0 0 0 0 0 0 0 0 0 
0 0 0 0 0 0 0 0 0 
0 0 0 0 0 0 0 0 0 
0 0 0 0 0 0 0 0 0 
0 0 0 0 0 0 0 0 0 
0 0 0 0 0 0 0 0 0 
0 0 0 0 0 0 0 0 0 
0 0 0 0 0 0 0 0 0 
0 0 0 0 0 0 0 0 0 
0 0 0 0 0 0 0 0 0 
0 0 0 0 0 0 0 0 0 
0 0 0 0 0 0 0 0 0 
0 0 0 0 0 0 0 0 0 
0 0 0 0 0 0 0 0 0 
0 0 0 0 0 0 0 0 0 
0 0 0 0 0 0 0 0 0 
0 0 0 0 0 0 0 0 0 
0 0 0 0 0 0 0 0 0 
0 0 0 0 0 0 0 0 0 
0 0 0 0 0 0 0 0 0 
0 0 0 0 0 0 0 0 0 
0 0 0 0 0 0 0 0 0 
0 0 0 0 0 0 0 0 0 
0 0 0 0 0 0 0 0 0 
0 0 0 0 0 0 0 0 0 
0 0 0 0 0 0 0 0 0 
0 0 0 0 0 0 0 
METADATA
INFORMATION 0

POINT_DATA 1792
NORMALS Normals float
0.3173 -0.6192 -0.7182 0.2327 -0.5274 -0.8171 0.4278 -0.5697 -0.7017 
0.5318 -0.6426 -0.5516 0.2327 -0.5274 -0.8171 0.1857 -0.4208 -0.8879 
0.3549 -0.4644 -0.8114 0.4278 -0.5697 -0.7017 0.5318 -0.6426 -0.5516 
0.4278 -0.5697 -0.7017 0.5775 -0.6281 -0.5215 0.6496 -0.6695 -0.36 
0.4278 -0.5697 -0.7017 0.3549 -0.4644 -0.8114 0.5109 -0.5384 -0.6701 
0.5775 -0.6281 -0.5215 0 -0.7315 -0.6818 0 -0.6118 -0.791 
0.3173 -0.6192 -0.7182 0.45 -0.6919 -0.5646 0 -0.6118 -0.791 
0 -0.5124 -0.8587 0.2327 -0.5274 -0.8171 0.3173 -0.6192 -0.7182 
0 -0.5124 -0.8587 0 -0.4071 -0.9134 0.1857 -0.4208 -0.8879 
0.2327 -0.5274 -0.8171 0 -0.4071 -0.9134 0 -0.2847 -0.9586 
0.1573 -0.2953 -0.9424 0.1857 -0.4208 -0.8879 0.1857 -0.4208 -0.8879 
0.1573 -0.2953 -0.9424 0.2995 -0.3306 -0.895 0.3549 -0.4644 -0.8114 
0.3549 -0.4644 -0.8114 0.2995 -0.3306 -0.895 0.4432 -0.4028 -0.8008 
0.5109 -0.5384 -0.6701 0.5109 -0.5384 -0.6701 0.4432 -0.4028 -0.8008 
0.6088 -0.5065 -0.6106 0.6401 -0.6213 -0.4519 0.5775 -0.6281 -0.5215 
0.5109 -0.5384 -0.6701 0.6401 -0.6213 -0.4519 0.6655 -0.6828 -0.3015 
0.6496 -0.6695 -0.36 0.5775 -0.6281 -0.5215 0.6655 -0.6828 -0.3015 
0.6975 -0.6949 -0.1747 0.725 -0.6645 -0.1808 0.6496 -0.6695 -0.36 
0.6975 -0.6949 -0.1747 0.728 -0.68 -0.0863 0.6595 -0.6631 -0.354 
0.5318 -0.6426 -0.5516 0.6496 -0.6695 -0.36 0.725 -0.6645 -0.1808 
0.45 -0.6919 -0.5646 0.3173 -0.6192 -0.7182 0.5318 -0.6426 -0.5516 
0.6595 -0.6631 -0.354 0.7873 -0.5646 0.2477 0.8129 -0.5824 0 
0.8748 -0.4844 0 0.8559 -0.4671 0.222 0.8129 -0.5824 0 
0.7873 -0.5646 -0.2477 0.8559 -0.4671 -0.222 0.8748 -0.4844 0 
0.8559 -0.4671 0.222 0.8748 -0.4844 0 0.9394 -0.3428 0 
0.9231 -0.3336 0.191 0.8748 -0.4844 0 0.8559 -0.4671 -0.222 
0.9231 -0.3336 -0.191 0.9394 -0.3428 0 0.6088 -0.5065 0.6106 
0.7364 -0.6308 0.2445 0.7873 -0.5646 0.2477 0.6778 -0.4662 0.5685 
0.7364 -0.6308 0.2445 0.757 -0.6534 0 0.8129 -0.5824 0 
0.7873 -0.5646 0.2477 0.757 -0.6534 0 0.7364 -0.6308 -0.2445 
0.7873 -0.5646 -0.2477 0.8129 -0.5824 0 0.7364 -0.6308 -0.2445 
0.6088 -0.5065 -0.6106 0.6778 -0.4662 -0.5685 0.7873 -0.5646 -0.2477 
0.7873 -0.5646 -0.2477 0.6778 -0.4662 -0.5685 0.7689 -0.3846 -0.5108 
0.8559 -0.4671 -0.222 0.8559 -0.4671 -0.222 0.7689 -0.3846 -0.5108 
0.8565 -0.2661 -0.4423 0.9231 -0.3336 -0.191 0.9231 -0.3336 -0.191 
0.8565 -0.2661 -0.4423 0.9206 -0.1328 -0.3672 0.9745 -0.1346 -0.1794 
0.9394 -0.3428 0 0.9231 -0.3336 -0.191 0.9745 -0.1346 -0.1794 
0.9906 -0.1363 0 0.9231 -0.3336 0.191 0.9394 -0.3428 0 
0.9906 -0.1363 0 0.9745 -0.1346 0.1794 0.8565 -0.2661 0.4423 
0.9231 -0.3336 0.191 0.9745 -0.1346 0.1794 0.9206 -0.1328 0.3672 
0.7689 -0.3846 0.5108 0.8559 -0.4671 0.222 0.9231 -0.3336 0.191 
0.8565 -0.2661 0.4423 0.6778 -0.4662 0.5685 0.7873 -0.5646 0.2477 
0.8559 -0.4671 0.222 0.7689 -0.3846 0.5108 0.5109 -0.5384 0.6701 
0.3549 -0.4644 0.8114 0.4278 -0.5697 0.7017 0.5775 -0.6281 0.5215 
0.3549 -0.4644 0.8114 0.1857 -0.4208 0.8879 0.2327 -0.5274 0.8171 
0.4278 -0.5697 0.7017 0.5775 -0.6281 0.5215 0.4278 -0.5697 0.7017 
0.5318 -0.6426 0.5516 0.6496 -0.6695 0.36 0.4278 -0.5697 0.7017 
0.2327 -0.5274 0.8171 0.3173 -0.6192 0.7182 0.5318 -0.6426 0.5516 
0.6088 -0.5065 0.6106 0.4432 -0.4028 0.8008 0.5109 -0.5384 0.6701 
0.6401 -0.6213 0.4519 0.4432 -0.4028 0.8008 0.2995 -0.3306 0.895 
0.3549 -0.4644 0.8114 0.5109 -0.5384 0.6701 0.2995 -0.3306 0.895 
0.1573 -0.2953 0.9424 0.1857 -0.4208 0.8879 0.3549 -0.4644 0.8114 
0.1573 -0.2953 0.9424 0 -0.2847 0.9586 0 -0.4071 0.9134 
0.1857 -0.4208 0.8879 0.1857 -0.4208 0.8879 0 -0.4071 0.9134 
0 -0.5124 0.8587 0.2327 -0.5274 0.8171 0.2327 -0.5274 0.8171 
0 -0.5124 0.8587 0 -0.6118 0.791 0.3173 -0.6192 0.7182 
0.3173 -0.6192 0.7182 0 -0.6118 0.791 0 -0.7315 0.6818 
0.45 -0.6919 0.5646 0.5318 -0.6426 0.5516 0.3173 -0.6192 0.7182 
0.45 -0.6919 0.5646 0.6595 -0.6631 0.354 0.6496 -0.6695 0.36 
0.5318 -0.6426 0.5516 0.6595 -0.6631 0.354 0.725 -0.6645 0.1808 
0.6975 -0.6949 0.1747 0.6496 -0.6695 0.36 0.725 -0.6645 0.1808 
0.728 -0.68 0.0863 0.6655 -0.6828 0.3015 0.5775 -0.6281 0.5215 
0.6496 -0.6695 0.36 0.6975 -0.6949 0.1747 0.6401 -0.6213 0.4519 
0.5109 -0.5384 0.6701 0.5775 -0.6281 0.5215 0.6655 -0.6828 0.3015 
0.6996 -0.7131 -0.045 0.689 -0.7161 -0.1114 0.6872 -0.7264 0 
0.6947 -0.7193 0 0.689 -0.7161 -0.1114 0.7048 -0.683 -0.1915 
0.7118 -0.7023 0 0.6872 -0.7264 0 0.6947 -0.7193 0 
0.6872 -0.7264 0 0.689 -0.7161 0.1114 0.6996 -0.7131 0.045 
0.6872 -0.7264 0 0.7118 -0.7023 0 0.7048 -0.683 0.1915 
0.689 -0.7161 0.1114 0.728 -0.68 -0.0863 0.6975 -0.6949 -0.1747 
0.6996 -0.7131 -0.045 0.7406 -0.6719 -0.0086 0.6975 -0.6949 -0.1747 
0.6655 -0.6828 -0.3015 0.689 -0.7161 -0.1114 0.6996 -0.7131 -0.045 
0.6655 -0.6828 -0.3015 0.6401 -0.6213 -0.4519 0.7048 -0.683 -0.1915 
0.689 -0.7161 -0.1114 0.6401 -0.6213 -0.4519 0.6088 -0.5065 -0.6106 
0.7364 -0.6308 -0.2445 0.7048 -0.683 -0.1915 0.7048 -0.683 -0.1915 
0.7364 -0.6308 -0.2445 0.757 -0.6534 0 0.7118 -0.7023 0 
0.7118 -0.7023 0 0.757 -0.6534 0 0.7364 -0.6308 0.2445 
0.7048 -0.683 0.1915 0.7048 -0.683 0.1915 0.7364 -0.6308 0.2445 
0.6088 -0.5065 0.6106 0.6401 -0.6213 0.4519 0.689 -0.7161 0.1114 
0.7048 -0.683 0.1915 0.6401 -0.6213 0.4519 0.6655 -0.6828 0.3015 
0.6996 -0.7131 0.045 0.689 -0.7161 0.1114 0.6655 -0.6828 0.3015 
0.6975 -0.6949 0.1747 0.7406 -0.6719 0.0086 0.6996 -0.7131 0.045 
0.6975 -0.6949 0.1747 0.728 -0.68 0.0863 0.7437 -0.6685 0 
0.6947 -0.7193 0 0.6996 -0.7131 0.045 0.7406 -0.6719 0.0086 
0.7406 -0.6719 -0.0086 0.6996 -0.7131 -0.045 0.6947 -0.7193 0 
0.7437 -0.6685 0 0.2866 -0.0151 0.9579 0.3623 -0.1256 0.9236 
0.4584 -0.0564 0.8869 0.3636 0.0711 0.9288 0.3623 -0.1256 0.9236 
0.5056 -0.2875 0.8135 0.6096 -0.2234 0.7606 0.4584 -0.0564 0.8869 
0.3636 0.0711 0.9288 0.4584 -0.0564 0.8869 0.6144 0.0747 0.7854 
0.5083 0.224 0.8315 0.4584 -0.0564 0.8869 0.6096 -0.2234 0.7606 
0.7356 -0.1036 0.6695 0.6144 0.0747 0.7854 0.2282 0.0123 0.9735 
0.2545 -0.0437 0.9661 0.2866 -0.0151 0.9579 0.2475 0.0599 0.967 
0.2545 -0.0437 0.9661 0.3137 -0.1391 0.9392 0.3623 -0.1256 0.9236 
0.2866 -0.0151 0.9579 0.3137 -0.1391 0.9392 0.4333 -0.2936 0.8521 
0.5056 -0.2875 0.8135 0.3623 -0.1256 0.9236 0.4333 -0.2936 0.8521 
0.6088 -0.5065 0.6106 0.6778 -0.4662 0.5685 0.5056 -0.2875 0.8135 
0.5056 -0.2875 0.8135 0.6778 -0.4662 0.5685 0.7689 -0.3846 0.5108 
0.6096 -0.2234 0.7606 0.6096 -0.2234 0.7606 0.7689 -0.3846 0.5108 
0.8565 -0.2661 0.4423 0.7356 -0.1036 0.6695 0.7356 -0.1036 0.6695 
0.8565 -0.2661 0.4423 0.9206 -0.1328 0.3672 0.8797 0.0378 0.474 
0.6144 0.0747 0.7854 0.7356 -0.1036 0.6695 0.8797 0.0378 0.474 
0.7929 0.2345 0.5624 0.5083 0.224 0.8315 0.6144 0.0747 0.7854 
0.7929 0.2345 0.5624 0.6842 0.4104 0.6029 0.4267 0.3388 0.8385 
0.5083 0.224 0.8315 0.6842 0.4104 0.6029 0.5729 0.5484 0.6091 
0.3084 0.1631 0.9372 0.3636 0.0711 0.9288 0.5083 0.224 0.8315 
0.4267 0.3388 0.8385 0.2475 0.0599 0.967 0.2866 -0.0151 0.9579 
0.3636 0.0711 0.9288 0.3084 0.1631 0.9372 0.9693 0.1073 -0.2212 
0.9025 0.3366 -0.2686 0.9313 0.3641 0 0.993 0.1178 0 
0.9025 0.3366 -0.2686 0.7942 0.5329 -0.2919 0.8234 0.5674 0 
0.9313 0.3641 0 0.993 0.1178 0 0.9313 0.3641 0 
0.9025 0.3366 0.2686 0.9693 0.1073 0.2212 0.9313 0.3641 0 
0.8234 0.5674 0 0.7942 0.5329 0.2919 0.9025 0.3366 0.2686 
0.9206 -0.1328 -0.3672 0.8797 0.0378 -0.474 0.9693 0.1073 -0.2212 
0.9745 -0.1346 -0.1794 0.8797 0.0378 -0.474 0.7929 0.2345 -0.5624 
0.9025 0.3366 -0.2686 0.9693 0.1073 -0.2212 0.7929 0.2345 -0.5624 
0.6842 0.4104 -0.6029 0.7942 0.5329 -0.2919 0.9025 0.3366 -0.2686 
0.6842 0.4104 -0.6029 0.5729 0.5484 -0.6091 0.6652 0.685 -0.2969 
0.7942 0.5329 -0.2919 0.7942 0.5329 -0.2919 0.6652 0.685 -0.2969 
0.69 0.7238 0 0.8234 0.5674 0 0.8234 0.5674 0 
0.69 0.7238 0 0.6652 0.685 0.2969 0.7942 0.5329 0.2919 
0.7942 0.5329 0.2919 0.6652 0.685 0.2969 0.5729 0.5484 0.6091 
0.6842 0.4104 0.6029 0.9025 0.3366 0.2686 0.7942 0.5329 0.2919 
0.6842 0.4104 0.6029 0.7929 0.2345 0.5624 0.9693 0.1073 0.2212 
0.9025 0.3366 0.2686 0.7929 0.2345 0.5624 0.8797 0.0378 0.474 
0.9745 -0.1346 0.1794 0.9693 0.1073 0.2212 0.8797 0.0378 0.474 
0.9206 -0.1328 0.3672 0.9906 -0.1363 0 0.993 0.1178 0 
0.9693 0.1073 0.2212 0.9745 -0.1346 0.1794 0.9745 -0.1346 -0.1794 
0.9693 0.1073 -0.2212 0.993 0.1178 0 0.9906 -0.1363 0 
0.5142 0.8064 -0.2921 0.3179 0.907 -0.276 0.3309 0.9436 0 
0.533 0.8461 0 0.3179 0.907 -0.276 0.057 0.9692 -0.2395 
0.053 0.9986 0 0.3309 0.9436 0 0.533 0.8461 0 
0.3309 0.9436 0 0.3179 0.907 0.276 0.5142 0.8064 0.2921 
0.3309 0.9436 0 0.053 0.9986 0 0.057 0.9692 0.2395 
0.3179 0.907 0.276 0.5729 0.5484 -0.6091 0.4429 0.6653 -0.6009 
0.5142 0.8064 -0.2921 0.6652 0.685 -0.2969 0.4429 0.6653 -0.6009 
0.2618 0.776 -0.5737 0.3179 0.907 -0.276 0.5142 0.8064 -0.2921 
0.2618 0.776 -0.5737 0.0218 0.8604 -0.5092 0.057 0.9692 -0.2395 
0.3179 0.907 -0.276 0.0218 0.8604 -0.5092 -0.2231 0.8868 -0.4046 
-0.2613 0.9429 -0.2066 0.057 0.9692 -0.2395 0.057 0.9692 -0.2395 
-0.2613 0.9429 -0.2066 -0.2769 0.9609 0 0.053 0.9986 0 
0.053 0.9986 0 -0.2769 0.9609 0 -0.2613 0.9429 0.2066 
0.057 0.9692 0.2395 0.057 0.9692 0.2395 -0.2613 0.9429 0.2066 
-0.2231 0.8868 0.4046 0.0218 0.8604 0.5092 0.3179 0.907 0.276 
0.057 0.9692 0.2395 0.0218 0.8604 0.5092 0.2618 0.776 0.5737 
0.5142 0.8064 0.2921 0.3179 0.907 0.276 0.2618 0.776 0.5737 
0.4429 0.6653 0.6009 0.6652 0.685 0.2969 0.5142 0.8064 0.2921 
0.4429 0.6653 0.6009 0.5729 0.5484 0.6091 0.69 0.7238 0 
0.533 0.8461 0 0.5142 0.8064 0.2921 0.6652 0.685 0.2969 
0.6652 0.685 -0.2969 0.5142 0.8064 -0.2921 0.533 0.8461 0 
0.69 0.7238 0 0.1917 0.1229 -0.9737 0.0847 0.2221 -0.9713 
0.0965 0.3691 -0.9243 0.2356 0.2491 -0.9394 0.0847 0.2221 -0.9713 
-0.0866 0.4164 -0.905 -0.1339 0.5481 -0.8256 0.0965 0.3691 -0.9243 
0.2356 0.2491 -0.9394 0.0965 0.3691 -0.9243 0.1663 0.5651 -0.8081 
0.3284 0.4438 -0.8338 0.0965 0.3691 -0.9243 -0.1339 0.5481 -0.8256 
-0.078 0.6933 -0.7164 0.1663 0.5651 -0.8081 0.2282 0.0123 -0.9735 
0.1913 0.0435 -0.9806 0.1917 0.1229 -0.9737 0.2475 0.0599 -0.967 
0.1913 0.0435 -0.9806 0.1151 0.1105 -0.9872 0.0847 0.2221 -0.9713 
0.1917 0.1229 -0.9737 0.1151 0.1105 -0.9872 -0.0062 0.2569 -0.9664 
-0.0866 0.4164 -0.905 0.0847 0.2221 -0.9713 -0.0062 0.2569 -0.9664 
0 0.5272 -0.8497 -0.3045 0.6926 -0.6539 -0.0866 0.4164 -0.905 
-0.0866 0.4164 -0.905 -0.3045 0.6926 -0.6539 -0.3978 0.7297 -0.5561 
-0.1339 0.5481 -0.8256 -0.1339 0.5481 -0.8256 -0.3978 0.7297 -0.5561 
-0.3469 0.8008 -0.4883 -0.078 0.6933 -0.7164 -0.078 0.6933 -0.7164 
-0.3469 0.8008 -0.4883 -0.2231 0.8868 -0.4046 0.0218 0.8604 -0.5092 
0.1663 0.5651 -0.8081 -0.078 0.6933 -0.7164 0.0218 0.8604 -0.5092 
0.2618 0.776 -0.5737 0.3284 0.4438 -0.8338 0.1663 0.5651 -0.8081 
0.2618 0.776 -0.5737 0.4429 0.6653 -0.6009 0.4267 0.3388 -0.8385 
0.3284 0.4438 -0.8338 0.4429 0.6653 -0.6009 0.5729 0.5484 -0.6091 
0.3084 0.1631 -0.9372 0.2356 0.2491 -0.9394 0.3284 0.4438 -0.8338 
0.4267 0.3388 -0.8385 0.2475 0.0599 -0.967 0.1917 0.1229 -0.9737 
0.2356 0.2491 -0.9394 0.3084 0.1631 -0.9372 0.5056 -0.2875 -0.8135 
0.3623 -0.1256 -0.9236 0.4584 -0.0564 -0.8869 0.6096 -0.2234 -0.7606 
0.3623 -0.1256 -0.9236 0.2866 -0.0151 -0.9579 0.3636 0.0711 -0.9288 
0.4584 -0.0564 -0.8869 0.6096 -0.2234 -0.7606 0.4584 -0.0564 -0.8869 
0.6144 0.0747 -0.7854 0.7356 -0.1036 -0.6695 0.4584 -0.0564 -0.8869 
0.3636 0.0711 -0.9288 0.5083 0.224 -0.8315 0.6144 0.0747 -0.7854 
0.6088 -0.5065 -0.6106 0.4333 -0.2936 -0.8521 0.5056 -0.2875 -0.8135 
0.6778 -0.4662 -0.5685 0.4333 -0.2936 -0.8521 0.3137 -0.1391 -0.9392 
0.3623 -0.1256 -0.9236 0.5056 -0.2875 -0.8135 0.3137 -0.1391 -0.9392 
0.2545 -0.0437 -0.9661 0.2866 -0.0151 -0.9579 0.3623 -0.1256 -0.9236 
0.2545 -0.0437 -0.9661 0.2282 0.0123 -0.9735 0.2475 0.0599 -0.967 
0.2866 -0.0151 -0.9579 0.2866 -0.0151 -0.9579 0.2475 0.0599 -0.967 
0.3084 0.1631 -0.9372 0.3636 0.0711 -0.9288 0.3636 0.0711 -0.9288 
0.3084 0.1631 -0.9372 0.4267 0.3388 -0.8385 0.5083 0.224 -0.8315 
0.5083 0.224 -0.8315 0.4267 0.3388 -0.8385 0.5729 0.5484 -0.6091 
0.6842 0.4104 -0.6029 0.6144 0.0747 -0.7854 0.5083 0.224 -0.8315 
0.6842 0.4104 -0.6029 0.7929 0.2345 -0.5624 0.7356 -0.1036 -0.6695 
0.6144 0.0747 -0.7854 0.7929 0.2345 -0.5624 0.8797 0.0378 -0.474 
0.8565 -0.2661 -0.4423 0.7356 -0.1036 -0.6695 0.8797 0.0378 -0.474 
0.9206 -0.1328 -0.3672 0.7689 -0.3846 -0.5108 0.6096 -0.2234 -0.7606 
0.7356 -0.1036 -0.6695 0.8565 -0.2661 -0.4423 0.6778 -0.4662 -0.5685 
0.5056 -0.2875 -0.8135 0.6096 -0.2234 -0.7606 0.7689 -0.3846 -0.5108 
-0.4355 0.8575 -0.2739 -0.4501 0.8929 0 -0.5807 0.8141 0 
-0.5465 0.8033 -0.2367 -0.4501 0.8929 0 -0.4355 0.8575 0.2739 
-0.5465 0.8033 0.2367 -0.5807 0.8141 0 -0.5465 0.8033 -0.2367 
-0.5807 0.8141 0 -0.5131 0.8583 0 -0.4873 0.8464 -0.2145 
-0.5807 0.8141 0 -0.5465 0.8033 0.2367 -0.4873 0.8464 0.2145 
-0.5131 0.8583 0 0 0.5272 -0.8497 0 0.9439 -0.3301 
-0.4355 0.8575 -0.2739 -0.3045 0.6926 -0.6539 0 0.9439 -0.3301 
0 1 0 -0.4501 0.8929 0 -0.4355 0.8575 -0.2739 
0 1 0 0 0.9439 0.3301 -0.4355 0.8575 0.2739 
-0.4501 0.8929 0 0 0.9439 0.3301 0 0.5272 0.8497 
-0.3045 0.6926 0.6539 -0.4355 0.8575 0.2739 -0.4355 0.8575 0.2739 
-0.3045 0.6926 0.6539 -0.3978 0.7297 0.5561 -0.5465 0.8033 0.2367 
-0.5465 0.8033 0.2367 -0.3978 0.7297 0.5561 -0.3469 0.8008 0.4883 
-0.4873 0.8464 0.2145 -0.4873 0.8464 0.2145 -0.3469 0.8008 0.4883 
-0.2231 0.8868 0.4046 -0.2613 0.9429 0.2066 -0.5131 0.8583 0 
-0.4873 0.8464 0.2145 -0.2613 0.9429 0.2066 -0.2769 0.9609 0 
-0.4873 0.8464 -0.2145 -0.5131 0.8583 0 -0.2769 0.9609 0 
-0.2613 0.9429 -0.2066 -0.3469 0.8008 -0.4883 -0.4873 0.8464 -0.2145 
-0.2613 0.9429 -0.2066 -0.2231 0.8868 -0.4046 -0.3978 0.7297 -0.5561 
-0.5465 0.8033 -0.2367 -0.4873 0.8464 -0.2145 -0.3469 0.8008 -0.4883 
-0.3045 0.6926 -0.6539 -0.4355 0.8575 -0.2739 -0.5465 0.8033 -0.2367 
-0.3978 0.7297 -0.5561 -0.0866 0.4164 0.905 0.0847 0.2221 0.9713 
0.0965 0.3691 0.9243 -0.1339 0.5481 0.8256 0.0847 0.2221 0.9713 
0.1917 0.1229 0.9737 0.2356 0.2491 0.9394 0.0965 0.3691 0.9243 
-0.1339 0.5481 0.8256 0.0965 0.3691 0.9243 0.1663 0.5651 0.8081 
-0.078 0.6933 0.7164 0.0965 0.3691 0.9243 0.2356 0.2491 0.9394 
0.3284 0.4438 0.8338 0.1663 0.5651 0.8081 0 0.5272 0.8497 
-0.0062 0.2569 0.9664 -0.0866 0.4164 0.905 -0.3045 0.6926 0.6539 
-0.0062 0.2569 0.9664 0.1151 0.1105 0.9872 0.0847 0.2221 0.9713 
-0.0866 0.4164 0.905 0.1151 0.1105 0.9872 0.1913 0.0435 0.9806 
0.1917 0.1229 0.9737 0.0847 0.2221 0.9713 0.1913 0.0435 0.9806 
0.2282 0.0123 0.9735 0.2475 0.0599 0.967 0.1917 0.1229 0.9737 
0.1917 0.1229 0.9737 0.2475 0.0599 0.967 0.3084 0.1631 0.9372 
0.2356 0.2491 0.9394 0.2356 0.2491 0.9394 0.3084 0.1631 0.9372 
0.4267 0.3388 0.8385 0.3284 0.4438 0.8338 0.3284 0.4438 0.8338 
0.4267 0.3388 0.8385 0.5729 0.5484 0.6091 0.4429 0.6653 0.6009 
0.1663 0.5651 0.8081 0.3284 0.4438 0.8338 0.4429 0.6653 0.6009 
0.2618 0.776 0.5737 -0.078 0.6933 0.7164 0.1663 0.5651 0.8081 
0.2618 0.776 0.5737 0.0218 0.8604 0.5092 -0.3469 0.8008 0.4883 
-0.078 0.6933 0.7164 0.0218 0.8604 0.5092 -0.2231 0.8868 0.4046 
-0.3978 0.7297 0.5561 -0.1339 0.5481 0.8256 -0.078 0.6933 0.7164 
-0.3469 0.8008 0.4883 -0.3045 0.6926 0.6539 -0.0866 0.4164 0.905 
-0.1339 0.5481 0.8256 -0.3978 0.7297 0.5561 0.5804 -0.7438 -0.3314 
0.7619 -0.6288 -0.1555 0.7991 -0.6011 0 0.6368 -0.771 0 
0.7619 -0.6288 -0.1555 0.7785 -0.626 -0.0445 0.7963 -0.6049 0 
0.7991 -0.6011 0 0.6368 -0.771 0 0.7991 -0.6011 0 
0.7619 -0.6288 0.1555 0.5804 -0.7438 0.3314 0.7991 -0.6011 0 
0.7963 -0.6049 0 0.7785 -0.626 0.0445 0.7619 -0.6288 0.1555 
0 -0.7315 -0.6818 0.45 -0.6919 -0.5646 0.5804 -0.7438 -0.3314 
0 -0.9022 -0.4314 0.45 -0.6919 -0.5646 0.6595 -0.6631 -0.354 
0.7619 -0.6288 -0.1555 0.5804 -0.7438 -0.3314 0.6595 -0.6631 -0.354 
0.725 -0.6645 -0.1808 0.7785 -0.626 -0.0445 0.7619 -0.6288 -0.1555 
0.725 -0.6645 -0.1808 0.728 -0.68 -0.0863 0.7406 -0.6719 -0.0086 
0.7785 -0.626 -0.0445 0.7785 -0.626 -0.0445 0.7406 -0.6719 -0.0086 
0.7437 -0.6685 0 0.7963 -0.6049 0 0.7963 -0.6049 0 
0.7437 -0.6685 0 0.7406 -0.6719 0.0086 0.7785 -0.626 0.0445 
0.7785 -0.626 0.0445 0.7406 -0.6719 0.0086 0.728 -0.68 0.0863 
0.725 -0.6645 0.1808 0.7619 -0.6288 0.1555 0.7785 -0.626 0.0445 
0.725 -0.6645 0.1808 0.6595 -0.6631 0.354 0.5804 -0.7438 0.3314 
0.7619 -0.6288 0.1555 0.6595 -0.6631 0.354 0.45 -0.6919 0.5646 
0 -0.9022 0.4314 0.5804 -0.7438 0.3314 0.45 -0.6919 0.5646 
0 -0.7315 0.6818 0 -1 0 0.6368 -0.771 0 
0.5804 -0.7438 0.3314 0 -0.9022 0.4314 0 -0.9022 -0.4314 
0.5804 -0.7438 -0.3314 0.6368 -0.771 0 0 -1 0 
0.3537 -0.2453 -0.9026 0.2499 -0.193 -0.9488 0.204 -0.0768 -0.9759 
0.2724 -0.1141 -0.9554 0.2499 -0.193 -0.9488 0.1348 -0.1638 -0.9772 
0.1093 -0.042 -0.9931 0.204 -0.0768 -0.9759 0.2724 -0.1141 -0.9554 
0.204 -0.0768 -0.9759 0.1598 0.0194 -0.9869 0.2231 -0.0248 -0.9745 
0.204 -0.0768 -0.9759 0.1093 -0.042 -0.9931 0.0612 0.0897 -0.9941 
0.1598 0.0194 -0.9869 0.6088 -0.5065 -0.6106 0.4432 -0.4028 -0.8008 
0.3537 -0.2453 -0.9026 0.4333 -0.2936 -0.8521 0.4432 -0.4028 -0.8008 
0.2995 -0.3306 -0.895 0.2499 -0.193 -0.9488 0.3537 -0.2453 -0.9026 
0.2995 -0.3306 -0.895 0.1573 -0.2953 -0.9424 0.1348 -0.1638 -0.9772 
0.2499 -0.193 -0.9488 0.1573 -0.2953 -0.9424 0 -0.2847 -0.9586 
0 -0.1537 -0.9881 0.1348 -0.1638 -0.9772 0.1348 -0.1638 -0.9772 
0 -0.1537 -0.9881 0 -0.0265 -0.9996 0.1093 -0.042 -0.9931 
0.1093 -0.042 -0.9931 0 -0.0265 -0.9996 0 0.135 -0.9908 
0.0612 0.0897 -0.9941 0.0612 0.0897 -0.9941 0 0.135 -0.9908 
0 0.5272 -0.8497 -0.0062 0.2569 -0.9664 0.1598 0.0194 -0.9869 
0.0612 0.0897 -0.9941 -0.0062 0.2569 -0.9664 0.1151 0.1105 -0.9872 
0.2231 -0.0248 -0.9745 0.1598 0.0194 -0.9869 0.1151 0.1105 -0.9872 
0.1913 0.0435 -0.9806 0.2545 -0.0437 -0.9661 0.2231 -0.0248 -0.9745 
0.1913 0.0435 -0.9806 0.2282 0.0123 -0.9735 0.3137 -0.1391 -0.9392 
0.2724 -0.1141 -0.9554 0.2231 -0.0248 -0.9745 0.2545 -0.0437 -0.9661 
0.4333 -0.2936 -0.8521 0.3537 -0.2453 -0.9026 0.2724 -0.1141 -0.9554 
0.3137 -0.1391 -0.9392 0.1348 -0.1638 0.9772 0.2499 -0.193 0.9488 
0.204 -0.0768 0.9759 0.1093 -0.042 0.9931 0.2499 -0.193 0.9488 
0.3537 -0.2453 0.9026 0.2724 -0.1141 0.9554 0.204 -0.0768 0.9759 