# vtk DataFile Version 4.2
vtk output
ASCII
DATASET POLYDATA
FIELD FieldData 1
MaterialNames 1 1 string
None

POINTS 1792 float
0.035636 -0.291065 -0.099274 0.050288 -0.238772 -0.142623 0.09919 -0.225163 -0.132409 
0.070999 -0.275468 -0.093512 0.050288 -0.238772 -0.142623 0.06532 -0.168854 -0.185553 
0.129697 -0.157941 -0.171435 0.09919 -0.225163 -0.132409 0.070999 -0.275468 -0.093512 
0.09919 -0.225163 -0.132409 0.144202 -0.20769 -0.114222 0.104299 -0.254776 -0.08238 
0.09919 -0.225163 -0.132409 0.129697 -0.157941 -0.171435 0.190955 -0.142248 -0.147593 
0.144202 -0.20769 -0.114222 -0 -0.333176 -0.060996 0 -0.297466 -0.101035 
0.035636 -0.291065 -0.099274 0.024004 -0.326014 -0.060319 0 -0.297466 -0.101035 
-0 -0.244084 -0.145848 0.050288 -0.238772 -0.142623 0.035636 -0.291065 -0.099274 
-0 -0.244084 -0.145848 -0 -0.172773 -0.190266 0.06532 -0.168854 -0.185553 
0.050288 -0.238772 -0.142623 -0 -0.172773 -0.190266 -0 -0.085147 -0.227666 
0.07714 -0.082962 -0.221831 0.06532 -0.168854 -0.185553 0.06532 -0.168854 -0.185553 
0.07714 -0.082962 -0.221831 0.154004 -0.075483 -0.20544 0.129697 -0.157941 -0.171435 
0.129697 -0.157941 -0.171435 0.154004 -0.075483 -0.20544 0.230568 -0.060854 -0.17968 
0.190955 -0.142248 -0.147593 0.190955 -0.142248 -0.147593 0.230568 -0.060854 -0.17968 
0.313245 -0.031933 -0.139957 0.2404 -0.127734 -0.110835 0.144202 -0.20769 -0.114222 
0.190955 -0.142248 -0.147593 0.2404 -0.127734 -0.110835 0.178347 -0.191262 -0.085445 
0.104299 -0.254776 -0.08238 0.144202 -0.20769 -0.114222 0.178347 -0.191262 -0.085445 
0.129211 -0.237114 -0.063571 0.07646 -0.284744 -0.05355 0.104299 -0.254776 -0.08238 
0.129211 -0.237114 -0.063571 0.098665 -0.263891 -0.048415 0.049447 -0.308552 -0.058009 
0.070999 -0.275468 -0.093512 0.104299 -0.254776 -0.08238 0.07646 -0.284744 -0.05355 
0.024004 -0.326014 -0.060319 0.035636 -0.291065 -0.099274 0.070999 -0.275468 -0.093512 
0.049447 -0.308552 -0.058009 0.401714 0.031359 0.069345 0.400911 0.025461 0 
0.452456 0.103685 -0 0.453903 0.110611 0.064906 0.400911 0.025461 0 
0.401714 0.031359 -0.069345 0.453902 0.110611 -0.064906 0.452456 0.103685 -0 
0.453903 0.110611 0.064906 0.452456 0.103685 -0 0.490814 0.179112 -0 
0.489474 0.183774 0.058475 0.452456 0.103685 -0 0.453902 0.110611 -0.064906 
0.489474 0.183774 -0.058475 0.490814 0.179112 -0 0.313245 -0.031933 0.139957 
0.33598 -0.049029 0.068727 0.401714 0.031359 0.069345 0.394394 0.059058 0.1297 
0.33598 -0.049029 0.068727 0.337824 -0.050715 0 0.400911 0.025461 0 
0.401714 0.031359 0.069345 0.337824 -0.050715 0 0.33598 -0.049029 -0.068727 
0.401714 0.031359 -0.069345 0.400911 0.025461 0 0.33598 -0.049029 -0.068727 
0.313245 -0.031933 -0.139957 0.394394 0.059058 -0.1297 0.401714 0.031359 -0.069345 
0.401714 0.031359 -0.069345 0.394394 0.059058 -0.1297 0.447695 0.136239 -0.12021 
0.453902 0.110611 -0.064906 0.453902 0.110611 -0.064906 0.447695 0.136239 -0.12021 
0.482242 0.20286 -0.107014 0.489474 0.183774 -0.058475 0.489474 0.183774 -0.058475 
0.482242 0.20286 -0.107014 0.49903 0.248302 -0.092703 0.508973 0.250164 -0.054813 
0.490814 0.179112 -0 0.489474 0.183774 -0.058475 0.508973 0.250164 -0.054813 
0.514106 0.251192 -0 0.489474 0.183774 0.058475 0.490814 0.179112 -0 
0.514106 0.251192 -0 0.508973 0.250164 0.054813 0.482242 0.20286 0.107014 
0.489474 0.183774 0.058475 0.508973 0.250164 0.054813 0.49903 0.248302 0.092703 
0.447695 0.136239 0.12021 0.453903 0.110611 0.064906 0.489474 0.183774 0.058475 
0.482242 0.20286 0.107014 0.394394 0.059058 0.1297 0.401714 0.031359 0.069345 
0.453903 0.110611 0.064906 0.447695 0.136239 0.12021 0.190955 -0.142248 0.147593 
0.129697 -0.157941 0.171435 0.09919 -0.225163 0.132409 0.144202 -0.20769 0.114222 
0.129697 -0.157941 0.171435 0.06532 -0.168854 0.185553 0.050288 -0.238772 0.142623 
0.09919 -0.225163 0.132409 0.144202 -0.20769 0.114222 0.09919 -0.225163 0.132409 
0.070999 -0.275468 0.093512 0.104299 -0.254776 0.08238 0.09919 -0.225163 0.132409 
0.050288 -0.238772 0.142623 0.035636 -0.291065 0.099274 0.070999 -0.275468 0.093512 
0.313245 -0.031933 0.139957 0.230568 -0.060854 0.17968 0.190955 -0.142248 0.147593 
0.2404 -0.127734 0.110835 0.230568 -0.060854 0.17968 0.154004 -0.075483 0.20544 
0.129697 -0.157941 0.171435 0.190955 -0.142248 0.147593 0.154004 -0.075483 0.20544 
0.07714 -0.082962 0.221831 0.06532 -0.168854 0.185553 0.129697 -0.157941 0.171435 
0.07714 -0.082962 0.221831 -0 -0.085147 0.227666 -0 -0.172773 0.190266 
0.06532 -0.168854 0.185553 0.06532 -0.168854 0.185553 -0 -0.172773 0.190266 
-0 -0.244084 0.145848 0.050288 -0.238772 0.142623 0.050288 -0.238772 0.142623 
-0 -0.244084 0.145848 -0 -0.297466 0.101035 0.035636 -0.291065 0.099274 
0.035636 -0.291065 0.099274 -0 -0.297466 0.101035 -0 -0.333176 0.060996 
0.024004 -0.326015 0.060319 0.070999 -0.275468 0.093512 0.035636 -0.291065 0.099274 
0.024004 -0.326015 0.060319 0.049447 -0.308552 0.058009 0.104299 -0.254776 0.08238 
0.070999 -0.275468 0.093512 0.049447 -0.308552 0.058009 0.07646 -0.284744 0.05355 
0.129211 -0.237114 0.063571 0.104299 -0.254776 0.08238 0.07646 -0.284744 0.05355 
0.098665 -0.263891 0.048415 0.178347 -0.191262 0.085445 0.144202 -0.20769 0.114222 
0.104299 -0.254776 0.08238 0.129211 -0.237114 0.063571 0.2404 -0.127734 0.110835 
0.190955 -0.142248 0.147593 0.144202 -0.20769 0.114222 0.178347 -0.191262 0.085445 
0.139025 -0.228241 -0.034504 0.196092 -0.181507 -0.045583 0.199554 -0.176626 0 
0.139881 -0.224047 0 0.196092 -0.181507 -0.045583 0.264094 -0.121938 -0.058527 
0.267638 -0.118547 0 0.199554 -0.176626 0 0.139881 -0.224047 0 
0.199554 -0.176626 0 0.196092 -0.181507 0.045583 0.139025 -0.228241 0.034504 
0.199554 -0.176626 0 0.267638 -0.118547 0 0.264094 -0.121938 0.058527 
0.196092 -0.181507 0.045583 0.098665 -0.263891 -0.048415 0.129211 -0.237114 -0.063571 
0.139025 -0.228241 -0.034504 0.094754 -0.265394 -0.027581 0.129211 -0.237114 -0.063571 
0.178347 -0.191262 -0.085445 0.196092 -0.181507 -0.045583 0.139025 -0.228241 -0.034504 
0.178347 -0.191262 -0.085445 0.2404 -0.127734 -0.110835 0.264094 -0.121938 -0.058527 
0.196092 -0.181507 -0.045583 0.2404 -0.127734 -0.110835 0.313245 -0.031933 -0.139957 
0.33598 -0.049029 -0.068727 0.264094 -0.121938 -0.058527 0.264094 -0.121938 -0.058527 
0.33598 -0.049029 -0.068727 0.337824 -0.050715 0 0.267638 -0.118547 0 
0.267638 -0.118547 0 0.337824 -0.050715 0 0.33598 -0.049029 0.068727 
0.264094 -0.121938 0.058527 0.264094 -0.121938 0.058527 0.33598 -0.049029 0.068727 
0.313245 -0.031933 0.139957 0.2404 -0.127734 0.110835 0.196092 -0.181507 0.045583 
0.264094 -0.121938 0.058527 0.2404 -0.127734 0.110835 0.178347 -0.191262 0.085445 
0.139025 -0.228241 0.034504 0.196092 -0.181507 0.045583 0.178347 -0.191262 0.085445 
0.129211 -0.237114 0.063571 0.094754 -0.265394 0.027581 0.139025 -0.228241 0.034504 
0.129211 -0.237114 0.063571 0.098665 -0.263891 0.048415 0.092152 -0.264243 0 
0.139881 -0.224047 0 0.139025 -0.228241 0.034504 0.094754 -0.265394 0.027581 
0.094754 -0.265394 -0.027581 0.139025 -0.228241 -0.034504 0.139881 -0.224047 0 
0.092152 -0.264243 0 0.342376 0.25041 0.201538 0.367126 0.185173 0.190983 
0.41498 0.242247 0.177582 0.384412 0.302252 0.187708 0.367126 0.185173 0.190983 
0.38438 0.116389 0.169502 0.435597 0.183179 0.157076 0.41498 0.242247 0.177582 
0.384412 0.302252 0.187708 0.41498 0.242247 0.177582 0.451926 0.298777 0.156206 
0.419384 0.355131 0.164394 0.41498 0.242247 0.177582 0.435597 0.183179 0.157076 
0.47165 0.244317 0.138517 0.451926 0.298777 0.156206 0.279133 0.263363 0.214465 
0.293199 0.213205 0.212415 0.342376 0.25041 0.201538 0.306455 0.302482 0.20706 
0.293199 0.213205 0.212415 0.308754 0.140855 0.203782 0.367126 0.185173 0.190983 
0.342376 0.25041 0.201538 0.308754 0.140855 0.203782 0.319116 0.059129 0.183723 
0.38438 0.116389 0.169502 0.367126 0.185173 0.190983 0.319116 0.059129 0.183723 
0.313245 -0.031933 0.139957 0.394394 0.059058 0.1297 0.38438 0.116389 0.169502 
0.38438 0.116389 0.169502 0.394394 0.059058 0.1297 0.447695 0.136239 0.12021 
0.435597 0.183179 0.157076 0.435597 0.183179 0.157076 0.447695 0.136239 0.12021 
0.482242 0.20286 0.107014 0.47165 0.244317 0.138517 0.47165 0.244317 0.138517 
0.482242 0.20286 0.107014 0.49903 0.248302 0.092703 0.495439 0.289671 0.107645 
0.451926 0.298777 0.156206 0.47165 0.244317 0.138517 0.495439 0.289671 0.107645 
0.478368 0.344387 0.120051 0.419384 0.355131 0.164394 0.451926 0.298777 0.156206 
0.478368 0.344387 0.120051 0.445325 0.39876 0.125512 0.373718 0.405449 0.167639 
0.419384 0.355131 0.164394 0.445325 0.39876 0.125512 0.398626 0.446457 0.126886 
0.34131 0.354507 0.192703 0.384412 0.302252 0.187708 0.419384 0.355131 0.164394 
0.373718 0.405449 0.167639 0.306455 0.302482 0.20706 0.342376 0.25041 0.201538 
0.384412 0.302252 0.187708 0.34131 0.354507 0.192703 0.51097 0.312229 -0.059291 
0.494594 0.371353 -0.065356 0.500164 0.379866 -0 0.516821 0.318438 -0 
0.494594 0.371353 -0.065356 0.461243 0.425732 -0.068097 0.466456 0.434589 -0 
0.500164 0.379866 -0 0.516821 0.318438 -0 0.500164 0.379866 -0 
0.494594 0.371353 0.065356 0.51097 0.312229 0.059291 0.500164 0.379866 -0 
0.466456 0.434589 -0 0.461243 0.425732 0.068097 0.494594 0.371353 0.065356 
0.49903 0.248302 -0.092703 0.495439 0.289671 -0.107645 0.51097 0.312229 -0.059291 
0.508973 0.250164 -0.054813 0.495439 0.289671 -0.107645 0.478368 0.344387 -0.120051 
0.494594 0.371353 -0.065356 0.51097 0.312229 -0.059291 0.478368 0.344387 -0.120051 
0.445325 0.39876 -0.125512 0.461243 0.425732 -0.068097 0.494594 0.371353 -0.065356 
0.445325 0.39876 -0.125512 0.398626 0.446457 -0.126886 0.41423 0.47202 -0.068529 
0.461243 0.425732 -0.068097 0.461243 0.425732 -0.068097 0.41423 0.47202 -0.068529 
0.419276 0.480413 -0 0.466456 0.434589 -0 0.466456 0.434589 -0 
0.419276 0.480413 -0 0.41423 0.47202 0.068529 0.461243 0.425732 0.068097 
0.461243 0.425732 0.068097 0.41423 0.47202 0.068529 0.398626 0.446457 0.126886 
0.445325 0.39876 0.125512 0.494594 0.371353 0.065356 0.461243 0.425732 0.068097 
[...]
CELL_DATA 448
FIELD FieldData 2
MaterialIds 1 448 int
0 0 0 0 0 0 0 0 0 
0 0 0 0 0 0 0 0 0 
0 0 0 0 0 0 0 0 0 
0 0 0 0 0 0 0 0 0 
0 0 0 0 0 0 0 0 0 
0 0 0 0 0 0 0 0 0 
0 0 0 0 0 0 0 0 0 
0 0 0 0 0 0 0 0 0 
0 0 0 0 0 0 0 0 0 
0 0 0 0 0 0 0 0 0 
0 0 0 0 0 0 0 0 0 
0 0 0 0 0 0 0 0 0 
0 0 0 0 0 0 0 0 0 
0 0 0 0 0 0 0 0 0 
0 0 0 0 0 0 0 0 0 
0 0 0 0 0 0 0 0 0 
0 0 0 0 0 0 0 0 0 
0 0 0 0 0 0 0 0 0 
0 0 0 0 0 0 0 0 0 
0 0 0 0 0 0 0 0 0 
0 0 0 0 0 0 0 0 0 
0 0 0 0 0 0 0 0 0 
0 0 0 0 0 0 0 0 0 
0 0 0 0 0 0 0 0 0 
0 0 0 0 0 0 0 0 0 
0 0 0 0 0 0 0 0 0 
0 0 0 0 0 0 0 0 0 
0 0 0 0 0 0 0 0 0 
0 0 0 0 0 0 0 0 0 
0 0 0 0 0 0 0 0 0 
0 0 0 0 0 0 0 0 0 
0 0 0 0 0 0 0 0 0 
0 0 0 0 0 0 0 0 0 
0 0 0 0 0 0 0 0 0 
0 0 0 0 0 0 0 0 0 
0 0 0 0 0 0 0 0 0 
0 0 0 0 0 0 0 0 0 
0 0 0 0 0 0 0 0 0 
0 0 0 0 0 0 0 0 0 
0 0 0 0 0 0 0 0 0 
0 0 0 0 0 0 0 0 0 
0 0 0 0 0 0 0 0 0 
0 0 0 0 0 0 0 0 0 
0 0 0 0 0 0 0 0 0 
0 0 0 0 0 0 0 0 0 
0 0 0 0 0 0 0 0 0 
0 0 0 0 0 0 0 0 0 
0 0 0 0 0 0 0 0 0 
0 0 0 0 0 0 0 0 0 
0 0 0 0 0 0 0 
METADATA
INFORMATION 0

GroupIds 1 448 float
0 0 0 0 0 0 0 0 0 
0 0 0 0 0 0 0 0 0 
0 0 0 0 0 0 0 0 0 
0 0 0 0 0 0 0 0 0 
0 0 0 0 0 0 0 0 0 
0 0 0 0 0 0 0 0 0 
0 0 0 0 0 0 0 0 0 
0 0 0 0 0 0 0 0 0 
0 0 0 0 0 0 0 0 0 
0 0 0 0 0 0 0 0 0 
0 0 0 0 0 0 0 0 0 
0 0 0 0 0 0 0 0 0 
0 0 0 0 0 0 0 0 0 
0 0 0 0 0 0 0 0 0 
0 0 0 0 0 0 0 0 0 
0 0 0 0 0 0 0 0 0 
0 0 0 0 0 0 0 0 0 
0 0 0 0 0 0 0 0 0 
0 0 0 0 0 0 0 0 0 
0 0 0 0 0 0 0 0 0 
0 0 0 0 0 0 0 0 0 
0 0 0 0 0 0 0 0 0 
0 0 0 0 0 0 0 0 0 
0 0 0 0 0 0 0 0 0 
0 0 0 0 0 0 0 0 0 
0 0 0 0 0 0 0 0 0 
0 0 0 0 0 0 0 0 0 
0 0 0 0 0 0 0 0 0 
0 0 0 0 0 0 0 0 0 
0 0 0 0 0 0 0 0 0 
0 0 0 0 0 0 0 0 0 
0 0 0 0 0 0 0 0 0 
0 0 0 0 0 0 0 0 0 
0 0 0 0 0 0 0 0 0 
0 0 0 0 0 0 0 0 0 
0 0 0 0 0 0 0 0 0 
0 0 0 0 0 0 0 0 0 
0 0 0 0 0 0 0 0 0 
0 0 0 0 0 0 0 0 0 
0 0 0 0 0 0 0 0 0 
0 0 0 0 0 0 0 0 0 
0 0 0 0 0 0 0 0 0 
0 0 0 0 0 0 0 0 0 
0 0 0 0 0 0 0 0 0 
0 0 0 0 0 0 0 0 0 
0 0 0 0 0 0 0 0 0 
0 0 0 0 0 0 0 0 0 
0 0 0 0 0 0 0 0 0 
0 0 0 0 0 0 0 0 0 
0 0 0 0 0 0 0 
METADATA
INFORMATION 0

POINT_DATA 1792
NORMALS Normals float
0.2953 -0.7139 -0.6349 0.2232 -0.6089 -0.7612 0.4091 -0.6457 -0.6447 
0.496 -0.7278 -0.4735 0.2232 -0.6089 -0.7612 0.1823 -0.4804 -0.8578 
0.348 -0.5218 -0.7788 0.4091 -0.6457 -0.6447 0.496 -0.7278 -0.4735 
0.4091 -0.6457 -0.6447 0.5503 -0.6947 -0.4631 0.6047 -0.7426 -0.2878 
0.4091 -0.6457 -0.6447 0.348 -0.5218 -0.7788 0.5008 -0.5913 -0.632 
0.5503 -0.6947 -0.4631 0 -0.828 -0.5607 0 -0.7106 -0.7036 
0.2953 -0.7139 -0.6349 0.4096 -0.7877 -0.4601 0 -0.7106 -0.7036 
0 -0.5958 -0.8031 0.2232 -0.6089 -0.7612 0.2953 -0.7139 -0.6349 
0 -0.5958 -0.8031 0 -0.467 -0.8842 0.1823 -0.4804 -0.8578 
0.2232 -0.6089 -0.7612 0 -0.467 -0.8842 0 -0.3161 -0.9487 
0.1563 -0.3269 -0.932 0.1823 -0.4804 -0.8578 0.1823 -0.4804 -0.8578 
0.1563 -0.3269 -0.932 0.2989 -0.3625 -0.8827 0.348 -0.5218 -0.7788 
0.348 -0.5218 -0.7788 0.2989 -0.3625 -0.8827 0.4439 -0.434 -0.784 
0.5008 -0.5913 -0.632 0.5008 -0.5913 -0.632 0.4439 -0.434 -0.784 
0.6107 -0.5337 -0.5849 0.6254 -0.6666 -0.4056 0.5503 -0.6947 -0.4631 
0.5008 -0.5913 -0.632 0.6254 -0.6666 -0.4056 0.6316 -0.7372 -0.2399 
0.6047 -0.7426 -0.2878 0.5503 -0.6947 -0.4631 0.6316 -0.7372 -0.2399 
0.647 -0.7551 -0.1059 0.6679 -0.7369 -0.1042 0.6047 -0.7426 -0.2878 
0.647 -0.7551 -0.1059 0.6678 -0.7441 -0.0159 0.6045 -0.7501 -0.2679 
0.496 -0.7278 -0.4735 0.6047 -0.7426 -0.2878 0.6679 -0.7369 -0.1042 
0.4096 -0.7877 -0.4601 0.2953 -0.7139 -0.6349 0.496 -0.7278 -0.4735 
0.6045 -0.7501 -0.2679 0.7883 -0.5822 0.199 0.8035 -0.5953 0 
0.8654 -0.5011 0 0.857 -0.484 0.177 0.8035 -0.5953 0 
0.7883 -0.5822 -0.199 0.857 -0.484 -0.177 0.8654 -0.5011 0 
0.857 -0.484 0.177 0.8654 -0.5011 0 0.9277 -0.3732 0 
0.9201 -0.3582 0.1582 0.8654 -0.5011 0 0.857 -0.484 -0.177 
0.9201 -0.3582 -0.1582 0.9277 -0.3732 0 0.6107 -0.5337 0.5849 
0.7284 -0.6577 0.1921 0.7883 -0.5822 0.199 0.6855 -0.4827 0.545 
0.7284 -0.6577 0.1921 0.7385 -0.6742 0 0.8035 -0.5953 0 
0.7883 -0.5822 0.199 0.7385 -0.6742 0 0.7284 -0.6577 -0.1921 
0.7883 -0.5822 -0.199 0.8035 -0.5953 0 0.7284 -0.6577 -0.1921 
0.6107 -0.5337 -0.5849 0.6855 -0.4827 -0.545 0.7883 -0.5822 -0.199 
0.7883 -0.5822 -0.199 0.6855 -0.4827 -0.545 0.7772 -0.3973 -0.488 
0.857 -0.484 -0.177 0.857 -0.484 -0.177 0.7772 -0.3973 -0.488 
0.862 -0.2799 -0.4226 0.9201 -0.3582 -0.1582 0.9201 -0.3582 -0.1582 
0.862 -0.2799 -0.4226 0.9239 -0.148 -0.3529 0.9734 -0.1589 -0.1649 
0.9277 -0.3732 0 0.9201 -0.3582 -0.1582 0.9734 -0.1589 -0.1649 
0.9862 -0.1654 0 0.9201 -0.3582 0.1582 0.9277 -0.3732 0 
0.9862 -0.1654 0 0.9734 -0.1589 0.1649 0.862 -0.2799 0.4226 
0.9201 -0.3582 0.1582 0.9734 -0.1589 0.1649 0.9239 -0.148 0.3529 
0.7772 -0.3973 0.488 0.857 -0.484 0.177 0.9201 -0.3582 0.1582 
0.862 -0.2799 0.4226 0.6855 -0.4827 0.545 0.7883 -0.5822 0.199 
0.857 -0.484 0.177 0.7772 -0.3973 0.488 0.5008 -0.5913 0.632 
0.348 -0.5218 0.7788 0.4091 -0.6457 0.6447 0.5503 -0.6947 0.4631 
0.348 -0.5218 0.7788 0.1823 -0.4804 0.8578 0.2232 -0.6089 0.7612 
0.4091 -0.6457 0.6447 0.5503 -0.6947 0.4631 0.4091 -0.6457 0.6447 
0.496 -0.7278 0.4735 0.6047 -0.7426 0.2878 0.4091 -0.6457 0.6447 
0.2232 -0.6089 0.7612 0.2953 -0.7139 0.6349 0.496 -0.7278 0.4735 
0.6107 -0.5337 0.5849 0.4439 -0.434 0.784 0.5008 -0.5913 0.632 
0.6254 -0.6666 0.4056 0.4439 -0.434 0.784 0.2989 -0.3625 0.8827 
0.348 -0.5218 0.7788 0.5008 -0.5913 0.632 0.2989 -0.3625 0.8827 
0.1563 -0.3269 0.932 0.1823 -0.4804 0.8578 0.348 -0.5218 0.7788 
0.1563 -0.3269 0.932 0 -0.3161 0.9487 0 -0.467 0.8842 
0.1823 -0.4804 0.8578 0.1823 -0.4804 0.8578 0 -0.467 0.8842 
0 -0.5958 0.8031 0.2232 -0.6089 0.7612 0.2232 -0.6089 0.7612 
0 -0.5958 0.8031 0 -0.7106 0.7036 0.2953 -0.7139 0.6349 
0.2953 -0.7139 0.6349 0 -0.7106 0.7036 0 -0.828 0.5607 
0.4096 -0.7877 0.4601 0.496 -0.7278 0.4735 0.2953 -0.7139 0.6349 
0.4096 -0.7877 0.4601 0.6045 -0.7501 0.2679 0.6047 -0.7426 0.2878 
0.496 -0.7278 0.4735 0.6045 -0.7501 0.2679 0.6679 -0.7369 0.1042 
0.647 -0.7551 0.1059 0.6047 -0.7426 0.2878 0.6679 -0.7369 0.1042 
0.6678 -0.7441 0.0159 0.6316 -0.7372 0.2399 0.5503 -0.6947 0.4631 
0.6047 -0.7426 0.2878 0.647 -0.7551 0.1059 0.6254 -0.6666 0.4056 
0.5008 -0.5913 0.632 0.5503 -0.6947 0.4631 0.6316 -0.7372 0.2399 
0.6446 -0.7641 0.0258 0.6486 -0.7598 -0.0439 0.6439 -0.7651 0 
0.6386 -0.7696 0 0.6486 -0.7598 -0.0439 0.6813 -0.7201 -0.1312 
0.6806 -0.7326 0 0.6439 -0.7651 0 0.6386 -0.7696 0 
0.6439 -0.7651 0 0.6486 -0.7598 0.0439 0.6446 -0.7641 -0.0258 
0.6439 -0.7651 0 0.6806 -0.7326 0 0.6813 -0.7201 0.1312 
0.6486 -0.7598 0.0439 0.6678 -0.7441 -0.0159 0.647 -0.7551 -0.1059 
0.6446 -0.7641 0.0258 0.6775 -0.7327 0.0634 0.647 -0.7551 -0.1059 
0.6316 -0.7372 -0.2399 0.6486 -0.7598 -0.0439 0.6446 -0.7641 0.0258 
0.6316 -0.7372 -0.2399 0.6254 -0.6666 -0.4056 0.6813 -0.7201 -0.1312 
0.6486 -0.7598 -0.0439 0.6254 -0.6666 -0.4056 0.6107 -0.5337 -0.5849 
0.7284 -0.6577 -0.1921 0.6813 -0.7201 -0.1312 0.6813 -0.7201 -0.1312 
0.7284 -0.6577 -0.1921 0.7385 -0.6742 0 0.6806 -0.7326 0 
0.6806 -0.7326 0 0.7385 -0.6742 0 0.7284 -0.6577 0.1921 
0.6813 -0.7201 0.1312 0.6813 -0.7201 0.1312 0.7284 -0.6577 0.1921 
0.6107 -0.5337 0.5849 0.6254 -0.6666 0.4056 0.6486 -0.7598 0.0439 
0.6813 -0.7201 0.1312 0.6254 -0.6666 0.4056 0.6316 -0.7372 0.2399 
0.6446 -0.7641 -0.0258 0.6486 -0.7598 0.0439 0.6316 -0.7372 0.2399 
0.647 -0.7551 0.1059 0.6775 -0.7327 -0.0634 0.6446 -0.7641 -0.0258 
0.647 -0.7551 0.1059 0.6678 -0.7441 0.0159 0.6812 -0.7321 0 
0.6386 -0.7696 0 0.6446 -0.7641 -0.0258 0.6775 -0.7327 -0.0634 
0.6775 -0.7327 0.0634 0.6446 -0.7641 0.0258 0.6386 -0.7696 0 
0.6812 -0.7321 0 0.2587 0.006 0.9659 0.347 -0.1128 0.931 
0.4426 -0.0441 0.8956 0.3337 0.0936 0.938 0.347 -0.1128 0.931 
0.5056 -0.2889 0.8129 0.6093 -0.2234 0.7608 0.4426 -0.0441 0.8956 
0.3337 0.0936 0.938 0.4426 -0.0441 0.8956 0.5982 0.092 0.796 
0.4752 0.2565 0.8416 0.4426 -0.0441 0.8956 0.6093 -0.2234 0.7608 
0.7346 -0.1025 0.6707 0.5982 0.092 0.796 0.1898 0.0452 0.9808 
0.2282 -0.0167 0.9734 0.2587 0.006 0.9659 0.2047 0.0902 0.9746 
0.2282 -0.0167 0.9734 0.3007 -0.1214 0.9459 0.347 -0.1128 0.931 
0.2587 0.006 0.9659 0.3007 -0.1214 0.9459 0.434 -0.297 0.8505 
0.5056 -0.2889 0.8129 0.347 -0.1128 0.931 0.434 -0.297 0.8505 
0.6107 -0.5337 0.5849 0.6855 -0.4827 0.545 0.5056 -0.2889 0.8129 
0.5056 -0.2889 0.8129 0.6855 -0.4827 0.545 0.7772 -0.3973 0.488 
0.6093 -0.2234 0.7608 0.6093 -0.2234 0.7608 0.7772 -0.3973 0.488 
0.862 -0.2799 0.4226 0.7346 -0.1025 0.6707 0.7346 -0.1025 0.6707 
0.862 -0.2799 0.4226 0.9239 -0.148 0.3529 0.879 0.0406 0.475 
0.5982 0.092 0.796 0.7346 -0.1025 0.6707 0.879 0.0406 0.475 
0.7769 0.2621 0.5724 0.4752 0.2565 0.8416 0.5982 0.092 0.796 
0.7769 0.2621 0.5724 0.6452 0.4574 0.612 0.374 0.384 0.8442 
0.4752 0.2565 0.8416 0.6452 0.4574 0.612 0.5089 0.6052 0.6121 
0.261 0.196 0.9452 0.3337 0.0936 0.938 0.4752 0.2565 0.8416 
0.374 0.384 0.8442 0.2047 0.0902 0.9746 0.2587 0.006 0.9659 
0.3337 0.0936 0.938 0.261 0.196 0.9452 0.9691 0.1097 -0.2207 
0.887 0.3716 -0.2739 0.9161 0.401 0 0.9928 0.1194 0 
0.887 0.3716 -0.2739 0.7515 0.5889 -0.2973 0.7799 0.6259 0 
0.9161 0.401 0 0.9928 0.1194 0 0.9161 0.401 0 
0.887 0.3716 0.2739 0.9691 0.1097 0.2207 0.9161 0.401 0 
0.7799 0.6259 0 0.7515 0.5889 0.2973 0.887 0.3716 0.2739 
0.9239 -0.148 -0.3529 0.879 0.0406 -0.475 0.9691 0.1097 -0.2207 
0.9734 -0.1589 -0.1649 0.879 0.0406 -0.475 0.7769 0.2621 -0.5724 
0.887 0.3716 -0.2739 0.9691 0.1097 -0.2207 0.7769 0.2621 -0.5724 
0.6452 0.4574 -0.612 0.7515 0.5889 -0.2973 0.887 0.3716 -0.2739 
0.6452 0.4574 -0.612 0.5089 0.6052 -0.6121 0.5934 0.7474 -0.2987 
0.7515 0.5889 -0.2973 0.7515 0.5889 -0.2973 0.5934 0.7474 -0.2987 
0.6161 0.7877 0 0.7799 0.6259 0 0.7799 0.6259 0 
0.6161 0.7877 0 0.5934 0.7474 0.2987 0.7515 0.5889 0.2973 
0.7515 0.5889 0.2973 0.5934 0.7474 0.2987 0.5089 0.6052 0.6121 
0.6452 0.4574 0.612 0.887 0.3716 0.2739 0.7515 0.5889 0.2973 
0.6452 0.4574 0.612 0.7769 0.2621 0.5724 0.9691 0.1097 0.2207 
0.887 0.3716 0.2739 0.7769 0.2621 0.5724 0.879 0.0406 0.475 
0.9734 -0.1589 0.1649 0.9691 0.1097 0.2207 0.879 0.0406 0.475 
0.9239 -0.148 0.3529 0.9862 -0.1654 0 0.9928 0.1194 0 
0.9691 0.1097 0.2207 0.9734 -0.1589 0.1649 0.9734 -0.1589 -0.1649 
0.9691 0.1097 -0.2207 0.9928 0.1194 0 0.9862 -0.1654 0 
0.4188 0.861 -0.2883 0.2124 0.9403 -0.2658 0.2225 0.9749 0 
0.4347 0.9005 0 0.2124 0.9403 -0.2658 -0.0365 0.9736 -0.2252 
-0.0414 0.9991 0 0.2225 0.9749 0 0.4347 0.9005 0 
0.2225 0.9749 0 0.2124 0.9403 0.2658 0.4188 0.861 0.2883 
0.2225 0.9749 0 -0.0414 0.9991 0 -0.0365 0.9736 0.2252 
0.2124 0.9403 0.2658 0.5089 0.6052 -0.6121 0.3578 0.7199 -0.5948 
0.4188 0.861 -0.2883 0.5934 0.7474 -0.2987 0.3578 0.7199 -0.5948 
0.1667 0.8143 -0.556 0.2124 0.9403 -0.2658 0.4188 0.861 -0.2883 
0.1667 0.8143 -0.556 -0.064 0.8736 -0.4824 -0.0365 0.9736 -0.2252 
0.2124 0.9403 -0.2658 -0.064 0.8736 -0.4824 -0.285 0.8804 -0.3791 
-0.3214 0.9275 -0.1909 -0.0365 0.9736 -0.2252 -0.0365 0.9736 -0.2252 
-0.3214 0.9275 -0.1909 -0.3362 0.9418 0 -0.0414 0.9991 0 
-0.0414 0.9991 0 -0.3362 0.9418 0 -0.3214 0.9275 0.1909 
-0.0365 0.9736 0.2252 -0.0365 0.9736 0.2252 -0.3214 0.9275 0.1909 
-0.285 0.8804 0.3791 -0.064 0.8736 0.4824 0.2124 0.9403 0.2658 
-0.0365 0.9736 0.2252 -0.064 0.8736 0.4824 0.1667 0.8143 0.556 
0.4188 0.861 0.2883 0.2124 0.9403 0.2658 0.1667 0.8143 0.556 
0.3578 0.7199 0.5948 0.5934 0.7474 0.2987 0.4188 0.861 0.2883 
0.3578 0.7199 0.5948 0.5089 0.6052 0.6121 0.6161 0.7877 0 
0.4347 0.9005 0 0.4188 0.861 0.2883 0.5934 0.7474 0.2987 
0.5934 0.7474 -0.2987 0.4188 0.861 -0.2883 0.4347 0.9005 0 
0.6161 0.7877 0 0.1384 0.1595 -0.9774 0.0296 0.2655 -0.9637 
0.0248 0.4046 -0.9142 0.1734 0.2873 -0.942 0.0296 0.2655 -0.9637 
-0.1276 0.4635 -0.8768 -0.2 0.5672 -0.7989 0.0248 0.4046 -0.9142 
0.1734 0.2873 -0.942 0.0248 0.4046 -0.9142 0.0854 0.6046 -0.7919 
0.2575 0.4928 -0.8312 0.0248 0.4046 -0.9142 -0.2 0.5672 -0.7989 
-0.1509 0.7106 -0.6872 0.0854 0.6046 -0.7919 0.1898 0.0452 -0.9808 
0.1527 0.0855 -0.9846 0.1384 0.1595 -0.9774 0.2047 0.0902 -0.9746 
0.1527 0.0855 -0.9846 0.0877 0.1662 -0.9822 0.0296 0.2655 -0.9637 
0.1384 0.1595 -0.9774 0.0877 0.1662 -0.9822 -0.0166 0.3249 -0.9456 
-0.1276 0.4635 -0.8768 0.0296 0.2655 -0.9637 -0.0166 0.3249 -0.9456 
0 0.5901 -0.8073 -0.3215 0.7253 -0.6087 -0.1276 0.4635 -0.8768 
-0.1276 0.4635 -0.8768 -0.3215 0.7253 -0.6087 -0.4439 0.726 -0.5253 
-0.2 0.5672 -0.7989 -0.2 0.5672 -0.7989 -0.4439 0.726 -0.5253 
-0.3969 0.7946 -0.4593 -0.1509 0.7106 -0.6872 -0.1509 0.7106 -0.6872 
-0.3969 0.7946 -0.4593 -0.285 0.8804 -0.3791 -0.064 0.8736 -0.4824 
0.0854 0.6046 -0.7919 -0.1509 0.7106 -0.6872 -0.064 0.8736 -0.4824 
0.1667 0.8143 -0.556 0.2575 0.4928 -0.8312 0.0854 0.6046 -0.7919 
0.1667 0.8143 -0.556 0.3578 0.7199 -0.5948 0.374 0.384 -0.8442 
0.2575 0.4928 -0.8312 0.3578 0.7199 -0.5948 0.5089 0.6052 -0.6121 
0.261 0.196 -0.9452 0.1734 0.2873 -0.942 0.2575 0.4928 -0.8312 
0.374 0.384 -0.8442 0.2047 0.0902 -0.9746 0.1384 0.1595 -0.9774 
0.1734 0.2873 -0.942 0.261 0.196 -0.9452 0.5056 -0.2889 -0.8129 
0.347 -0.1128 -0.931 0.4426 -0.0441 -0.8956 0.6093 -0.2234 -0.7608 
0.347 -0.1128 -0.931 0.2587 0.006 -0.9659 0.3337 0.0936 -0.938 
0.4426 -0.0441 -0.8956 0.6093 -0.2234 -0.7608 0.4426 -0.0441 -0.8956 
0.5982 0.092 -0.796 0.7346 -0.1025 -0.6707 0.4426 -0.0441 -0.8956 
0.3337 0.0936 -0.938 0.4752 0.2565 -0.8416 0.5982 0.092 -0.796 
0.6107 -0.5337 -0.5849 0.434 -0.297 -0.8505 0.5056 -0.2889 -0.8129 
0.6855 -0.4827 -0.545 0.434 -0.297 -0.8505 0.3007 -0.1214 -0.9459 
0.347 -0.1128 -0.931 0.5056 -0.2889 -0.8129 0.3007 -0.1214 -0.9459 
0.2282 -0.0167 -0.9734 0.2587 0.006 -0.9659 0.347 -0.1128 -0.931 
0.2282 -0.0167 -0.9734 0.1898 0.0452 -0.9808 0.2047 0.0902 -0.9746 
0.2587 0.006 -0.9659 0.2587 0.006 -0.9659 0.2047 0.0902 -0.9746 
0.261 0.196 -0.9452 0.3337 0.0936 -0.938 0.3337 0.0936 -0.938 
0.261 0.196 -0.9452 0.374 0.384 -0.8442 0.4752 0.2565 -0.8416 
0.4752 0.2565 -0.8416 0.374 0.384 -0.8442 0.5089 0.6052 -0.6121 
0.6452 0.4574 -0.612 0.5982 0.092 -0.796 0.4752 0.2565 -0.8416 
0.6452 0.4574 -0.612 0.7769 0.2621 -0.5724 0.7346 -0.1025 -0.6707 
0.5982 0.092 -0.796 0.7769 0.2621 -0.5724 0.879 0.0406 -0.475 
0.862 -0.2799 -0.4226 0.7346 -0.1025 -0.6707 0.879 0.0406 -0.475 
0.9239 -0.148 -0.3529 0.7772 -0.3973 -0.488 0.6093 -0.2234 -0.7608 
0.7346 -0.1025 -0.6707 0.862 -0.2799 -0.4226 0.6855 -0.4827 -0.545 
0.5056 -0.2889 -0.8129 0.6093 -0.2234 -0.7608 0.7772 -0.3973 -0.488 
-0.4494 0.8611 -0.2375 -0.4685 0.8834 0 -0.6099 0.7924 0 
-0.579 0.7859 -0.2171 -0.4685 0.8834 0 -0.4494 0.8611 0.2375 
-0.579 0.7859 0.2171 -0.6099 0.7924 0 -0.579 0.7859 -0.2171 
-0.6099 0.7924 0 -0.5454 0.8381 0 -0.522 0.8295 -0.1984 
-0.6099 0.7924 0 -0.579 0.7859 0.2171 -0.522 0.8295 0.1984 
-0.5454 0.8381 0 0 0.5901 -0.8073 0 0.9611 -0.276 
-0.4494 0.8611 -0.2375 -0.3215 0.7253 -0.6087 0 0.9611 -0.276 
0 1 0 -0.4685 0.8834 0 -0.4494 0.8611 -0.2375 
0 1 0 0 0.9611 0.276 -0.4494 0.8611 0.2375 
-0.4685 0.8834 0 0 0.9611 0.276 0 0.5901 0.8073 
-0.3215 0.7253 0.6087 -0.4494 0.8611 0.2375 -0.4494 0.8611 0.2375 
-0.3215 0.7253 0.6087 -0.4439 0.726 0.5253 -0.579 0.7859 0.2171 
-0.579 0.7859 0.2171 -0.4439 0.726 0.5253 -0.3969 0.7946 0.4593 
-0.522 0.8295 0.1984 -0.522 0.8295 0.1984 -0.3969 0.7946 0.4593 
-0.285 0.8804 0.3791 -0.3214 0.9275 0.1909 -0.5454 0.8381 0 
-0.522 0.8295 0.1984 -0.3214 0.9275 0.1909 -0.3362 0.9418 0 
-0.522 0.8295 -0.1984 -0.5454 0.8381 0 -0.3362 0.9418 0 
-0.3214 0.9275 -0.1909 -0.3969 0.7946 -0.4593 -0.522 0.8295 -0.1984 
-0.3214 0.9275 -0.1909 -0.285 0.8804 -0.3791 -0.4439 0.726 -0.5253 
-0.579 0.7859 -0.2171 -0.522 0.8295 -0.1984 -0.3969 0.7946 -0.4593 
-0.3215 0.7253 -0.6087 -0.4494 0.8611 -0.2375 -0.579 0.7859 -0.2171 
-0.4439 0.726 -0.5253 -0.1276 0.4636 0.8768 0.0296 0.2655 0.9637 
0.0248 0.4046 0.9142 -0.2 0.5672 0.7989 0.0296 0.2655 0.9637 
0.1384 0.1595 0.9774 0.1734 0.2873 0.942 0.0248 0.4046 0.9142 
-0.2 0.5672 0.7989 0.0248 0.4046 0.9142 0.0854 0.6046 0.7919 
-0.1509 0.7106 0.6872 0.0248 0.4046 0.9142 0.1734 0.2873 0.942 
0.2575 0.4928 0.8312 0.0854 0.6046 0.7919 0 0.5901 0.8073 
-0.0166 0.3249 0.9456 -0.1276 0.4636 0.8768 -0.3215 0.7253 0.6087 
-0.0166 0.3249 0.9456 0.0877 0.1662 0.9822 0.0296 0.2655 0.9637 
-0.1276 0.4636 0.8768 0.0877 0.1662 0.9822 0.1527 0.0855 0.9846 
0.1384 0.1595 0.9774 0.0296 0.2655 0.9637 0.1527 0.0855 0.9846 
0.1898 0.0452 0.9808 0.2047 0.0902 0.9746 0.1384 0.1595 0.9774 
0.1384 0.1595 0.9774 0.2047 0.0902 0.9746 0.261 0.196 0.9452 
0.1734 0.2873 0.942 0.1734 0.2873 0.942 0.261 0.196 0.9452 
0.374 0.384 0.8442 0.2575 0.4928 0.8312 0.2575 0.4928 0.8312 
0.374 0.384 0.8442 0.5089 0.6052 0.6121 0.3578 0.7199 0.5948 
0.0854 0.6046 0.7919 0.2575 0.4928 0.8312 0.3578 0.7199 0.5948 
0.1667 0.8143 0.556 -0.1509 0.7106 0.6872 0.0854 0.6046 0.7919 
0.1667 0.8143 0.556 -0.064 0.8736 0.4824 -0.3969 0.7946 0.4593 
-0.1509 0.7106 0.6872 -0.064 0.8736 0.4824 -0.285 0.8804 0.3791 
-0.4439 0.726 0.5253 -0.2 0.5672 0.7989 -0.1509 0.7106 0.6872 
-0.3969 0.7946 0.4593 -0.3215 0.7253 0.6087 -0.1276 0.4636 0.8768 
-0.2 0.5672 0.7989 -0.4439 0.726 0.5253 0.5217 -0.8247 -0.2181 
0.6974 -0.713 -0.0724 0.7321 -0.6811 0 0.5696 -0.8219 0 
0.6974 -0.713 -0.0724 0.7154 -0.698 0.0291 0.7331 -0.6801 0 
0.7321 -0.6811 0 0.5696 -0.8219 0 0.7321 -0.6811 0 
0.6974 -0.713 0.0724 0.5217 -0.8247 0.2181 0.7321 -0.6811 0 
0.7331 -0.6801 0 0.7154 -0.698 -0.0291 0.6974 -0.713 0.0724 
0 -0.828 -0.5607 0.4096 -0.7877 -0.4601 0.5217 -0.8247 -0.2181 
0 -0.956 -0.2933 0.4096 -0.7877 -0.4601 0.6045 -0.7501 -0.2679 
0.6974 -0.713 -0.0724 0.5217 -0.8247 -0.2181 0.6045 -0.7501 -0.2679 
0.6679 -0.7369 -0.1042 0.7154 -0.698 0.0291 0.6974 -0.713 -0.0724 
0.6679 -0.7369 -0.1042 0.6678 -0.7441 -0.0159 0.6775 -0.7327 0.0634 
0.7154 -0.698 0.0291 0.7154 -0.698 0.0291 0.6775 -0.7327 0.0634 
0.6812 -0.7321 0 0.7331 -0.6801 0 0.7331 -0.6801 0 
0.6812 -0.7321 0 0.6775 -0.7327 -0.0634 0.7154 -0.698 -0.0291 
0.7154 -0.698 -0.0291 0.6775 -0.7327 -0.0634 0.6678 -0.7441 0.0159 
0.6679 -0.7369 0.1042 0.6974 -0.713 0.0724 0.7154 -0.698 -0.0291 
0.6679 -0.7369 0.1042 0.6045 -0.7501 0.2679 0.5217 -0.8247 0.2181 
0.6974 -0.713 0.0724 0.6045 -0.7501 0.2679 0.4096 -0.7877 0.4601 
0 -0.956 0.2933 0.5217 -0.8247 0.2181 0.4096 -0.7877 0.4601 
0 -0.828 0.5607 0 -1 0 0.5696 -0.8219 0 
0.5217 -0.8247 0.2181 0 -0.956 0.2933 0 -0.956 -0.2933 
0.5217 -0.8247 -0.2181 0.5696 -0.8219 0 0 -1 0 
0.3544 -0.248 -0.9016 0.2497 -0.1941 -0.9486 0.2013 -0.049 -0.9783 
0.2647 -0.0904 -0.9601 0.2497 -0.1941 -0.9486 0.1346 -0.1641 -0.9772 
0.1087 -0.0124 -0.994 0.2013 -0.049 -0.9783 0.2647 -0.0904 -0.9601 
0.2013 -0.049 -0.9783 0.1504 0.0694 -0.9862 0.2026 0.0145 -0.9791 
0.2013 -0.049 -0.9783 0.1087 -0.0124 -0.994 0.0597 0.1452 -0.9876 
0.1504 0.0694 -0.9862 0.6107 -0.5337 -0.5849 0.4439 -0.434 -0.784 
0.3544 -0.248 -0.9016 0.434 -0.297 -0.8505 0.4439 -0.434 -0.784 
0.2989 -0.3625 -0.8827 0.2497 -0.1941 -0.9486 0.3544 -0.248 -0.9016 
0.2989 -0.3625 -0.8827 0.1563 -0.3269 -0.932 0.1346 -0.1641 -0.9772 
0.2497 -0.1941 -0.9486 0.1563 -0.3269 -0.932 0 -0.3161 -0.9487 
0 -0.1538 -0.9881 0.1346 -0.1641 -0.9772 0.1346 -0.1641 -0.9772 
0 -0.1538 -0.9881 0 0.0039 -1 0.1087 -0.0124 -0.994 
0.1087 -0.0124 -0.994 0 0.0039 -1 0 0.1925 -0.9813 
0.0597 0.1452 -0.9876 0.0597 0.1452 -0.9876 0 0.1925 -0.9813 
0 0.5901 -0.8073 -0.0166 0.3249 -0.9456 0.1504 0.0694 -0.9862 
0.0597 0.1452 -0.9876 -0.0166 0.3249 -0.9456 0.0877 0.1662 -0.9822 
0.2026 0.0145 -0.9791 0.1504 0.0694 -0.9862 0.0877 0.1662 -0.9822 
0.1527 0.0855 -0.9846 0.2282 -0.0167 -0.9734 0.2026 0.0145 -0.9791 
0.1527 0.0855 -0.9846 0.1898 0.0452 -0.9808 0.3007 -0.1214 -0.9459 
0.2647 -0.0904 -0.9601 0.2026 0.0145 -0.9791 0.2282 -0.0167 -0.9734 
0.434 -0.297 -0.8505 0.3544 -0.248 -0.9016 0.2647 -0.0904 -0.9601 
0.3007 -0.1214 -0.9459 0.1346 -0.1641 0.9772 0.2497 -0.1941 0.9486 
0.2013 -0.049 0.9783 0.1087 -0.0124 0.994 0.2497 -0.1941 0.9486 
0.3544 -0.248 0.9016 0.2647 -0.0904 0.9601 0.2013 -0.049 0.9783 
0.1087 -0.0124 0.994 0.2013 -0.049 0.9783 0.1504 0.0694 0.9862 
0.0597 0.1452 0.9876 0.2013 -0.049 0.9783 0.2647 -0.0904 0.9601 