# vtk DataFile Version 4.2
vtk output
ASCII
DATASET POLYDATA
FIELD FieldData 1
MaterialNames 1 1 string
None

POINTS 1792 float
0.033645 -0.266794 -0.093727 0.047148 -0.214913 -0.133719 0.092914 -0.201845 -0.124031 
0.066918 -0.251396 -0.088138 0.047148 -0.214913 -0.133719 0.060856 -0.147517 -0.172872 
0.120786 -0.137239 -0.159657 0.092914 -0.201845 -0.124031 0.066918 -0.251396 -0.088138 
0.092914 -0.201845 -0.124031 0.134927 -0.185111 -0.106876 0.098151 -0.231305 -0.077524 
0.092914 -0.201845 -0.124031 0.120786 -0.137239 -0.159657 0.177767 -0.122523 -0.1374 
0.134927 -0.185111 -0.106876 -0 -0.309773 -0.058 0 -0.273092 -0.095448 
0.033645 -0.266794 -0.093727 0.022807 -0.302611 -0.057311 0 -0.273092 -0.095448 
-0 -0.220046 -0.1368 0.047148 -0.214913 -0.133719 0.033645 -0.266794 -0.093727 
-0 -0.220046 -0.1368 0 -0.151236 -0.177304 0.060856 -0.147517 -0.172872 
0.047148 -0.214913 -0.133719 0 -0.151236 -0.177304 -0 -0.068593 -0.211173 
0.071546 -0.066551 -0.205746 0.060856 -0.147517 -0.172872 0.060856 -0.147517 -0.172872 
0.071546 -0.066551 -0.205746 0.142818 -0.059588 -0.190519 0.120786 -0.137239 -0.159657 
0.120786 -0.137239 -0.159657 0.142818 -0.059588 -0.190519 0.213807 -0.046008 -0.166619 
0.177767 -0.122523 -0.1374 0.177767 -0.122523 -0.1374 0.213807 -0.046008 -0.166619 
0.29053 -0.019222 -0.129808 0.223812 -0.109027 -0.103187 0.134927 -0.185111 -0.106876 
0.177767 -0.122523 -0.1374 0.223812 -0.109027 -0.103187 0.16687 -0.169729 -0.079947 
0.098151 -0.231305 -0.077524 0.134927 -0.185111 -0.106876 0.16687 -0.169729 -0.079947 
0.121468 -0.214312 -0.059762 0.07229 -0.261396 -0.05063 0.098151 -0.231305 -0.077524 
0.121468 -0.214312 -0.059762 0.093099 -0.240918 -0.045684 0.046871 -0.285008 -0.054987 
0.066918 -0.251396 -0.088138 0.098151 -0.231305 -0.077524 0.07229 -0.261396 -0.05063 
0.022807 -0.302611 -0.057311 0.033645 -0.266794 -0.093727 0.066918 -0.251396 -0.088138 
0.046871 -0.285008 -0.054987 0.373016 0.03936 0.064391 0.37341 0.033549 -0 
0.42102 0.106442 -0 0.421241 0.112968 0.060235 0.37341 0.033549 -0 
0.373016 0.03936 -0.064391 0.421241 0.112968 -0.060235 0.42102 0.106442 -0 
0.421241 0.112968 0.060235 0.42102 0.106442 -0 0.455877 0.176568 -0 
0.453984 0.180844 0.054235 0.42102 0.106442 -0 0.421241 0.112968 -0.060235 
0.453984 0.180844 -0.054235 0.455877 0.176568 -0 0.29053 -0.019222 0.129808 
0.312361 -0.035503 0.063896 0.373016 0.03936 0.064391 0.365482 0.065239 0.120192 
0.312361 -0.035503 0.063896 0.315097 -0.037658 -0 0.37341 0.033549 -0 
0.373016 0.03936 0.064391 0.315097 -0.037658 -0 0.312361 -0.035503 -0.063896 
0.373016 0.03936 -0.064391 0.37341 0.033549 -0 0.312361 -0.035503 -0.063896 
0.29053 -0.019222 -0.129808 0.365482 0.065239 -0.120192 0.373016 0.03936 -0.064391 
0.373016 0.03936 -0.064391 0.365482 0.065239 -0.120192 0.414788 0.136763 -0.111375 
0.421241 0.112968 -0.060235 0.421241 0.112968 -0.060235 0.414788 0.136763 -0.111375 
0.446731 0.198479 -0.099133 0.453984 0.180844 -0.054235 0.453984 0.180844 -0.054235 
0.446731 0.198479 -0.099133 0.462215 0.24056 -0.085864 0.471571 0.242316 -0.050785 
0.455877 0.176568 -0 0.453984 0.180844 -0.054235 0.471571 0.242316 -0.050785 
0.476378 0.243279 -0 0.453984 0.180844 0.054235 0.455877 0.176568 -0 
0.476378 0.243279 -0 0.471571 0.242316 0.050785 0.446731 0.198479 0.099133 
0.453984 0.180844 0.054235 0.471571 0.242316 0.050785 0.462215 0.24056 0.085864 
0.414788 0.136763 0.111375 0.421241 0.112968 0.060235 0.453984 0.180844 0.054235 
0.446731 0.198479 0.099133 0.365482 0.065239 0.120192 0.373016 0.03936 0.064391 
0.421241 0.112968 0.060235 0.414788 0.136763 0.111375 0.177767 -0.122523 0.1374 
0.120786 -0.137239 0.159657 0.092914 -0.201845 0.124031 0.134927 -0.185111 0.106876 
0.120786 -0.137239 0.159657 0.060856 -0.147517 0.172872 0.047148 -0.214913 0.133719 
0.092914 -0.201845 0.124031 0.134927 -0.185111 0.106876 0.092914 -0.201845 0.124031 
0.066918 -0.251396 0.088138 0.098151 -0.231305 0.077524 0.092914 -0.201845 0.124031 
0.047148 -0.214913 0.133719 0.033645 -0.266794 0.093727 0.066918 -0.251396 0.088138 
0.29053 -0.019222 0.129808 0.213807 -0.046008 0.166619 0.177767 -0.122523 0.1374 
0.223812 -0.109027 0.103187 0.213807 -0.046008 0.166619 0.142818 -0.059588 0.190519 
0.120786 -0.137239 0.159657 0.177767 -0.122523 0.1374 0.142818 -0.059588 0.190519 
0.071546 -0.066551 0.205746 0.060856 -0.147517 0.172872 0.120786 -0.137239 0.159657 
0.071546 -0.066551 0.205746 -0 -0.068593 0.211173 -0 -0.151236 0.177304 
0.060856 -0.147517 0.172872 0.060856 -0.147517 0.172872 -0 -0.151236 0.177304 
-0 -0.220046 0.1368 0.047148 -0.214913 0.133719 0.047148 -0.214913 0.133719 
-0 -0.220046 0.1368 -0 -0.273092 0.095448 0.033645 -0.266794 0.093727 
0.033645 -0.266794 0.093727 -0 -0.273092 0.095448 -0 -0.309773 0.058 
0.022807 -0.302611 0.057311 0.066918 -0.251396 0.088138 0.033645 -0.266794 0.093727 
0.022807 -0.302611 0.057311 0.046871 -0.285008 0.054987 0.098151 -0.231305 0.077524 
0.066918 -0.251396 0.088138 0.046871 -0.285008 0.054987 0.07229 -0.261396 0.05063 
0.121468 -0.214312 0.059762 0.098151 -0.231305 0.077524 0.07229 -0.261396 0.05063 
0.093099 -0.240918 0.045684 0.16687 -0.169729 0.079947 0.134927 -0.185111 0.106876 
0.098151 -0.231305 0.077524 0.121468 -0.214312 0.059762 0.223812 -0.109027 0.103187 
0.177767 -0.122523 0.1374 0.134927 -0.185111 0.106876 0.16687 -0.169729 0.079947 
0.130795 -0.206243 -0.032461 0.18367 -0.160927 -0.042696 0.187321 -0.157009 0 
0.131852 -0.202958 0 0.18367 -0.160927 -0.042696 0.246307 -0.10407 -0.054585 
0.250378 -0.101656 0 0.187321 -0.157009 0 0.131852 -0.202958 0 
0.187321 -0.157009 0 0.18367 -0.160927 0.042696 0.130795 -0.206243 0.032461 
0.187321 -0.157009 0 0.250378 -0.101656 0 0.246307 -0.10407 0.054585 
0.18367 -0.160927 0.042696 0.093099 -0.240918 -0.045684 0.121468 -0.214312 -0.059762 
0.130795 -0.206243 -0.032461 0.089539 -0.2429 -0.026064 0.121468 -0.214312 -0.059762 
0.16687 -0.169729 -0.079947 0.18367 -0.160927 -0.042696 0.130795 -0.206243 -0.032461 
0.16687 -0.169729 -0.079947 0.223812 -0.109027 -0.103187 0.246307 -0.10407 -0.054585 
0.18367 -0.160927 -0.042696 0.223812 -0.109027 -0.103187 0.29053 -0.019222 -0.129808 
0.312361 -0.035503 -0.063896 0.246307 -0.10407 -0.054585 0.246307 -0.10407 -0.054585 
0.312361 -0.035503 -0.063896 0.315097 -0.037658 -0 0.250378 -0.101656 0 
0.250378 -0.101656 0 0.315097 -0.037658 -0 0.312361 -0.035503 0.063896 
0.246307 -0.10407 0.054585 0.246307 -0.10407 0.054585 0.312361 -0.035503 0.063896 
0.29053 -0.019222 0.129808 0.223812 -0.109027 0.103187 0.18367 -0.160927 0.042696 
0.246307 -0.10407 0.054585 0.223812 -0.109027 0.103187 0.16687 -0.169729 0.079947 
0.130795 -0.206243 0.032461 0.18367 -0.160927 0.042696 0.16687 -0.169729 0.079947 
0.121468 -0.214312 0.059762 0.089539 -0.2429 0.026064 0.130795 -0.206243 0.032461 
0.121468 -0.214312 0.059762 0.093099 -0.240918 0.045684 0.087237 -0.242503 0 
0.131852 -0.202958 0 0.130795 -0.206243 0.032461 0.089539 -0.2429 0.026064 
0.089539 -0.2429 -0.026064 0.130795 -0.206243 -0.032461 0.131852 -0.202958 0 
0.087237 -0.242503 0 0.317772 0.242718 0.187055 0.34024 0.182111 0.176996 
0.384517 0.234988 0.164546 0.35669 0.290794 0.174171 0.34024 0.182111 0.176996 
0.355907 0.118388 0.156947 0.40333 0.18023 0.145441 0.384517 0.234988 0.164546 
0.35669 0.290794 0.174171 0.384517 0.234988 0.164546 0.418706 0.287354 0.144724 
0.389142 0.339861 0.15254 0.384517 0.234988 0.164546 0.40333 0.18023 0.145441 
0.436713 0.236839 0.128257 0.418706 0.287354 0.144724 0.259795 0.25505 0.199607 
0.272312 0.20823 0.197283 0.317772 0.242718 0.187055 0.285213 0.291453 0.192707 
0.272312 0.20823 0.197283 0.28622 0.141038 0.18891 0.34024 0.182111 0.176996 
0.317772 0.242718 0.187055 0.28622 0.141038 0.18891 0.295478 0.065369 0.170114 
0.355907 0.118388 0.156947 0.34024 0.182111 0.176996 0.295478 0.065369 0.170114 
0.29053 -0.019222 0.129808 0.365482 0.065239 0.120192 0.355907 0.118388 0.156947 
0.355907 0.118388 0.156947 0.365482 0.065239 0.120192 0.414788 0.136763 0.111375 
0.40333 0.18023 0.145441 0.40333 0.18023 0.145441 0.414788 0.136763 0.111375 
0.446731 0.198479 0.099133 0.436713 0.236839 0.128257 0.436713 0.236839 0.128257 
0.446731 0.198479 0.099133 0.462215 0.24056 0.085864 0.45874 0.278834 0.099672 
0.418706 0.287354 0.144724 0.436713 0.236839 0.128257 0.45874 0.278834 0.099672 
0.443189 0.329604 0.111222 0.389142 0.339861 0.15254 0.418706 0.287354 0.144724 
0.443189 0.329604 0.111222 0.413326 0.380409 0.116493 0.347745 0.387235 0.155988 
0.389142 0.339861 0.15254 0.413326 0.380409 0.116493 0.371104 0.425531 0.118125 
0.317589 0.339833 0.17931 0.35669 0.290794 0.174171 0.389142 0.339861 0.15254 
0.347745 0.387235 0.155988 0.285213 0.291453 0.192707 0.317772 0.242718 0.187055 
0.35669 0.290794 0.174171 0.317589 0.339833 0.17931 0.473121 0.29972 -0.054899 
0.45825 0.354599 -0.060554 0.463429 0.362496 -0 0.478538 0.30547 -0 
0.45825 0.354599 -0.060554 0.42815 0.405473 -0.063211 0.433031 0.413721 -0 
0.463429 0.362496 -0 0.478538 0.30547 -0 0.463429 0.362496 -0 
0.45825 0.354599 0.060554 0.473121 0.29972 0.054899 0.463429 0.362496 -0 
0.433031 0.413721 -0 0.42815 0.405473 0.063211 0.45825 0.354599 0.060554 
0.462215 0.24056 -0.085864 0.45874 0.278834 -0.099672 0.473121 0.29972 -0.054899 
0.471571 0.242316 -0.050785 0.45874 0.278834 -0.099672 0.443189 0.329604 -0.111222 
0.45825 0.354599 -0.060554 0.473121 0.29972 -0.054899 0.443189 0.329604 -0.111222 
0.413326 0.380409 -0.116493 0.42815 0.405473 -0.063211 0.45825 0.354599 -0.060554 
0.413326 0.380409 -0.116493 0.371104 0.425531 -0.118125 0.385673 0.449362 -0.063804 
0.42815 0.405473 -0.063211 0.42815 0.405473 -0.063211 0.385673 0.449362 -0.063804 
0.390419 0.457216 -0 0.433031 0.413721 -0 0.433031 0.413721 -0 
0.390419 0.457216 -0 0.385673 0.449363 0.063804 0.42815 0.405473 0.063211 
0.42815 0.405473 0.063211 0.385673 0.449363 0.063804 0.371104 0.425531 0.118125 
0.413326 0.380409 0.116493 0.45825 0.354599 0.060554 0.42815 0.405473 0.063211 
[...]
CELL_DATA 448
FIELD FieldData 2
MaterialIds 1 448 int
0 0 0 0 0 0 0 0 0 
0 0 0 0 0 0 0 0 0 
0 0 0 0 0 0 0 0 0 
0 0 0 0 0 0 0 0 0 
0 0 0 0 0 0 0 0 0 
0 0 0 0 0 0 0 0 0 
0 0 0 0 0 0 0 0 0 
0 0 0 0 0 0 0 0 0 
0 0 0 0 0 0 0 0 0 
0 0 0 0 0 0 0 0 0 
0 0 0 0 0 0 0 0 0 
0 0 0 0 0 0 0 0 0 
0 0 0 0 0 0 0 0 0 
0 0 0 0 0 0 0 0 0 
0 0 0 0 0 0 0 0 0 
0 0 0 0 0 0 0 0 0 
0 0 0 0 0 0 0 0 0 
0 0 0 0 0 0 0 0 0 
0 0 0 0 0 0 0 0 0 
0 0 0 0 0 0 0 0 0 
0 0 0 0 0 0 0 0 0 
0 0 0 0 0 0 0 0 0 
0 0 0 0 0 0 0 0 0 
0 0 0 0 0 0 0 0 0 
0 0 0 0 0 0 0 0 0 
0 0 0 0 0 0 0 0 0 
0 0 0 0 0 0 0 0 0 
0 0 0 0 0 0 0 0 0 
0 0 0 0 0 0 0 0 0 
0 0 0 0 0 0 0 0 0 
0 0 0 0 0 0 0 0 0 
0 0 0 0 0 0 0 0 0 
0 0 0 0 0 0 0 0 0 
0 0 0 0 0 0 0 0 0 
0 0 0 0 0 0 0 0 0 
0 0 0 0 0 0 0 0 0 
0 0 0 0 0 0 0 0 0 
0 0 0 0 0 0 0 0 0 
0 0 0 0 0 0 0 0 0 
0 0 0 0 0 0 0 0 0 
0 0 0 0 0 0 0 0 0 
0 0 0 0 0 0 0 0 0 
0 0 0 0 0 0 0 0 0 
0 0 0 0 0 0 0 0 0 
0 0 0 0 0 0 0 0 0 
0 0 0 0 0 0 0 0 0 
0 0 0 0 0 0 0 0 0 
0 0 0 0 0 0 0 0 0 
0 0 0 0 0 0 0 0 0 
0 0 0 0 0 0 0 
METADATA
INFORMATION 0

GroupIds 1 448 float
0 0 0 0 0 0 0 0 0 
0 0 0 0 0 0 0 0 0 
0 0 0 0 0 0 0 0 0 
0 0 0 0 0 0 0 0 0 
0 0 0 0 0 0 0 0 0 
0 0 0 0 0 0 0 0 0 
0 0 0 0 0 0 0 0 0 
0 0 0 0 0 0 0 0 0 
0 0 0 0 0 0 0 0 0 
0 0 0 0 0 0 0 0 0 
0 0 0 0 0 0 0 0 0 
0 0 0 0 0 0 0 0 0 
0 0 0 0 0 0 0 0 0 
0 0 0 0 0 0 0 0 0 
0 0 0 0 0 0 0 0 0 
0 0 0 0 0 0 0 0 0 
0 0 0 0 0 0 0 0 0 
0 0 0 0 0 0 0 0 0 
0 0 0 0 0 0 0 0 0 
0 0 0 0 0 0 0 0 0 
0 0 0 0 0 0 0 0 0 
0 0 0 0 0 0 0 0 0 
0 0 0 0 0 0 0 0 0 
0 0 0 0 0 0 0 0 0 
0 0 0 0 0 0 0 0 0 
0 0 0 0 0 0 0 0 0 
0 0 0 0 0 0 0 0 0 
0 0 0 0 0 0 0 0 0 
0 0 0 0 0 0 0 0 0 
0 0 0 0 0 0 0 0 0 
0 0 0 0 0 0 0 0 0 
0 0 0 0 0 0 0 0 0 
0 0 0 0 0 0 0 0 0 
0 0 0 0 0 0 0 0 0 
0 0 0 0 0 0 0 0 0 
0 0 0 0 0 0 0 0 0 
0 0 0 0 0 0 0 0 0 
0 0 0 0 0 0 0 0 0 
0 0 0 0 0 0 0 0 0 
0 0 0 0 0 0 0 0 0 
0 0 0 0 0 0 0 0 0 
0 0 0 0 0 0 0 0 0 
0 0 0 0 0 0 0 0 0 
0 0 0 0 0 0 0 0 0 
0 0 0 0 0 0 0 0 0 
0 0 0 0 0 0 0 0 0 
0 0 0 0 0 0 0 0 0 
0 0 0 0 0 0 0 0 0 
0 0 0 0 0 0 0 0 0 
0 0 0 0 0 0 0 
METADATA
INFORMATION 0

POINT_DATA 1792
NORMALS Normals float
0.3027 -0.6856 -0.662 0.2263 -0.5848 -0.779 0.4151 -0.6236 -0.6624 
0.5079 -0.7027 -0.4982 0.2263 -0.5848 -0.779 0.1834 -0.4631 -0.8671 
0.3502 -0.5053 -0.7887 0.4151 -0.6236 -0.6624 0.5079 -0.7027 -0.4982 
0.4151 -0.6236 -0.6624 0.5589 -0.6757 -0.4807 0.6191 -0.7215 -0.31 
0.4151 -0.6236 -0.6624 0.3502 -0.5053 -0.7887 0.504 -0.5763 -0.6433 
0.5589 -0.6757 -0.4807 0 -0.7994 -0.6008 0 -0.6808 -0.7324 
0.3027 -0.6856 -0.662 0.4233 -0.7591 -0.4946 0 -0.6808 -0.7324 
0 -0.571 -0.8209 0.2263 -0.5848 -0.779 0.3027 -0.6856 -0.662 
0 -0.571 -0.8209 0 -0.4495 -0.8932 0.1834 -0.4631 -0.8671 
0.2263 -0.5848 -0.779 0 -0.4495 -0.8932 0 -0.3072 -0.9516 
0.1566 -0.3179 -0.9351 0.1834 -0.4631 -0.8671 0.1834 -0.4631 -0.8671 
0.1566 -0.3179 -0.9351 0.2991 -0.3534 -0.8863 0.3502 -0.5053 -0.7887 
0.3502 -0.5053 -0.7887 0.2991 -0.3534 -0.8863 0.4438 -0.4252 -0.7888 
0.504 -0.5763 -0.6433 0.504 -0.5763 -0.6433 0.4438 -0.4252 -0.7888 
0.6102 -0.5261 -0.5923 0.6299 -0.6539 -0.419 0.5589 -0.6757 -0.4807 
0.504 -0.5763 -0.6433 0.6299 -0.6539 -0.419 0.642 -0.7219 -0.2581 
0.6191 -0.7215 -0.31 0.5589 -0.6757 -0.4807 0.642 -0.7219 -0.2581 
0.6628 -0.738 -0.1265 0.6866 -0.7157 -0.1279 0.6191 -0.7215 -0.31 
0.6628 -0.738 -0.1265 0.687 -0.7257 -0.0373 0.623 -0.7242 -0.2956 
0.5079 -0.7027 -0.4982 0.6191 -0.7215 -0.31 0.6866 -0.7157 -0.1279 
0.4233 -0.7591 -0.4946 0.3027 -0.6856 -0.662 0.5079 -0.7027 -0.4982 
0.623 -0.7242 -0.2956 0.7882 -0.5774 0.2127 0.8061 -0.5917 0 
0.8681 -0.4964 0 0.8569 -0.4794 0.1896 0.8061 -0.5917 0 
0.7882 -0.5774 -0.2127 0.8569 -0.4794 -0.1896 0.8681 -0.4964 0 
0.8569 -0.4794 0.1896 0.8681 -0.4964 0 0.9311 -0.3648 0 
0.9211 -0.3514 0.1674 0.8681 -0.4964 0 0.8569 -0.4794 -0.1896 
0.9211 -0.3514 -0.1674 0.9311 -0.3648 0 0.6102 -0.5261 0.5923 
0.7309 -0.6503 0.2069 0.7882 -0.5774 0.2127 0.6834 -0.4781 0.5517 
0.7309 -0.6503 0.2069 0.7438 -0.6684 0 0.8061 -0.5917 0 
0.7882 -0.5774 0.2127 0.7438 -0.6684 0 0.7309 -0.6503 -0.2069 
0.7882 -0.5774 -0.2127 0.8061 -0.5917 0 0.7309 -0.6503 -0.2069 
0.6102 -0.5261 -0.5923 0.6834 -0.4781 -0.5517 0.7882 -0.5774 -0.2127 
0.7882 -0.5774 -0.2127 0.6834 -0.4781 -0.5517 0.7749 -0.3937 -0.4944 
0.8569 -0.4794 -0.1896 0.8569 -0.4794 -0.1896 0.7749 -0.3937 -0.4944 
0.8605 -0.276 -0.4281 0.9211 -0.3514 -0.1674 0.9211 -0.3514 -0.1674 
0.8605 -0.276 -0.4281 0.923 -0.1437 -0.3569 0.9738 -0.1521 -0.1689 
0.9311 -0.3648 0 0.9211 -0.3514 -0.1674 0.9738 -0.1521 -0.1689 
0.9875 -0.1573 0 0.9211 -0.3514 0.1674 0.9311 -0.3648 0 
0.9875 -0.1573 0 0.9738 -0.1521 0.1689 0.8605 -0.276 0.4281 
0.9211 -0.3514 0.1674 0.9738 -0.1521 0.1689 0.923 -0.1437 0.3569 
0.7749 -0.3937 0.4944 0.8569 -0.4794 0.1896 0.9211 -0.3514 0.1674 
0.8605 -0.276 0.4281 0.6834 -0.4781 0.5517 0.7882 -0.5774 0.2127 
0.8569 -0.4794 0.1896 0.7749 -0.3937 0.4944 0.504 -0.5763 0.6433 
0.3502 -0.5053 0.7887 0.4151 -0.6236 0.6624 0.5589 -0.6757 0.4807 
0.3502 -0.5053 0.7887 0.1834 -0.4631 0.8671 0.2263 -0.5848 0.779 
0.4151 -0.6236 0.6624 0.5589 -0.6757 0.4807 0.4151 -0.6236 0.6624 
0.5079 -0.7027 0.4982 0.6191 -0.7215 0.31 0.4151 -0.6236 0.6624 
0.2263 -0.5848 0.779 0.3027 -0.6856 0.662 0.5079 -0.7027 0.4982 
0.6102 -0.5261 0.5923 0.4438 -0.4252 0.7888 0.504 -0.5763 0.6433 
0.6299 -0.6539 0.419 0.4438 -0.4252 0.7888 0.2991 -0.3534 0.8863 
0.3502 -0.5053 0.7887 0.504 -0.5763 0.6433 0.2991 -0.3534 0.8863 
0.1566 -0.3179 0.9351 0.1834 -0.4631 0.8671 0.3502 -0.5053 0.7887 
0.1566 -0.3179 0.9351 0 -0.3072 0.9516 0 -0.4495 0.8932 
0.1834 -0.4631 0.8671 0.1834 -0.4631 0.8671 0 -0.4495 0.8932 
0 -0.571 0.8209 0.2263 -0.5848 0.779 0.2263 -0.5848 0.779 
0 -0.571 0.8209 0 -0.6808 0.7324 0.3027 -0.6856 0.662 
0.3027 -0.6856 0.662 0 -0.6808 0.7324 0 -0.7994 0.6008 
0.4233 -0.7591 0.4946 0.5079 -0.7027 0.4982 0.3027 -0.6856 0.662 
0.4233 -0.7591 0.4946 0.623 -0.7242 0.2956 0.6191 -0.7215 0.31 
0.5079 -0.7027 0.4982 0.623 -0.7242 0.2956 0.6866 -0.7157 0.1279 
0.6628 -0.738 0.1265 0.6191 -0.7215 0.31 0.6866 -0.7157 0.1279 
0.687 -0.7257 0.0373 0.642 -0.7219 0.2581 0.5589 -0.6757 0.4807 
0.6191 -0.7215 0.31 0.6628 -0.738 0.1265 0.6299 -0.6539 0.419 
0.504 -0.5763 0.6433 0.5589 -0.6757 0.4807 0.642 -0.7219 0.2581 
0.6617 -0.7497 0.0048 0.6609 -0.7478 -0.0635 0.6567 -0.7541 0 
0.6556 -0.7551 0 0.6609 -0.7478 -0.0635 0.6884 -0.7099 -0.1485 
0.6896 -0.7241 0 0.6567 -0.7541 0 0.6556 -0.7551 0 
0.6567 -0.7541 0 0.6609 -0.7478 0.0635 0.6617 -0.7497 -0.0048 
0.6567 -0.7541 0 0.6896 -0.7241 0 0.6884 -0.7099 0.1485 
0.6609 -0.7478 0.0635 0.687 -0.7257 -0.0373 0.6628 -0.738 -0.1265 
0.6617 -0.7497 0.0048 0.6977 -0.7151 0.0415 0.6628 -0.738 -0.1265 
0.642 -0.7219 -0.2581 0.6609 -0.7478 -0.0635 0.6617 -0.7497 0.0048 
0.642 -0.7219 -0.2581 0.6299 -0.6539 -0.419 0.6884 -0.7099 -0.1485 
0.6609 -0.7478 -0.0635 0.6299 -0.6539 -0.419 0.6102 -0.5261 -0.5923 
0.7309 -0.6503 -0.2069 0.6884 -0.7099 -0.1485 0.6884 -0.7099 -0.1485 
0.7309 -0.6503 -0.2069 0.7438 -0.6684 0 0.6896 -0.7241 0 
0.6896 -0.7241 0 0.7438 -0.6684 0 0.7309 -0.6503 0.2069 
0.6884 -0.7099 0.1485 0.6884 -0.7099 0.1485 0.7309 -0.6503 0.2069 
0.6102 -0.5261 0.5923 0.6299 -0.6539 0.419 0.6609 -0.7478 0.0635 
0.6884 -0.7099 0.1485 0.6299 -0.6539 0.419 0.642 -0.7219 0.2581 
0.6617 -0.7497 -0.0048 0.6609 -0.7478 0.0635 0.642 -0.7219 0.2581 
0.6628 -0.738 0.1265 0.6977 -0.7151 -0.0415 0.6617 -0.7497 -0.0048 
0.6628 -0.738 0.1265 0.687 -0.7257 0.0373 0.7009 -0.7132 0 
0.6556 -0.7551 0 0.6617 -0.7497 -0.0048 0.6977 -0.7151 -0.0415 
0.6977 -0.7151 0.0415 0.6617 -0.7497 0.0048 0.6556 -0.7551 0 
0.7009 -0.7132 0 0.2665 0.0002 0.9638 0.3513 -0.1164 0.929 
0.447 -0.0475 0.8932 0.3421 0.0873 0.9356 0.3513 -0.1164 0.929 
0.5056 -0.2885 0.8131 0.6094 -0.2234 0.7607 0.447 -0.0475 0.8932 
0.3421 0.0873 0.9356 0.447 -0.0475 0.8932 0.6028 0.0872 0.7931 
0.4845 0.2475 0.839 0.447 -0.0475 0.8932 0.6094 -0.2234 0.7607 
0.7349 -0.1028 0.6703 0.6028 0.0872 0.7931 0.2006 0.036 0.979 
0.2356 -0.0243 0.9715 0.2665 0.0002 0.9638 0.2167 0.0818 0.9728 
0.2356 -0.0243 0.9715 0.3044 -0.1263 0.9441 0.3513 -0.1164 0.929 
0.2665 0.0002 0.9638 0.3044 -0.1263 0.9441 0.4338 -0.2961 0.8509 
0.5056 -0.2885 0.8131 0.3513 -0.1164 0.929 0.4338 -0.2961 0.8509 
0.6102 -0.5261 0.5923 0.6834 -0.4781 0.5517 0.5056 -0.2885 0.8131 
0.5056 -0.2885 0.8131 0.6834 -0.4781 0.5517 0.7749 -0.3937 0.4944 
0.6094 -0.2234 0.7607 0.6094 -0.2234 0.7607 0.7749 -0.3937 0.4944 
0.8605 -0.276 0.4281 0.7349 -0.1028 0.6703 0.7349 -0.1028 0.6703 
0.8605 -0.276 0.4281 0.923 -0.1437 0.3569 0.8792 0.0398 0.4747 
0.6028 0.0872 0.7931 0.7349 -0.1028 0.6703 0.8792 0.0398 0.4747 
0.7815 0.2544 0.5697 0.4845 0.2475 0.839 0.6028 0.0872 0.7931 
0.7815 0.2544 0.5697 0.6563 0.4444 0.6096 0.389 0.3715 0.843 
0.4845 0.2475 0.839 0.6563 0.4444 0.6096 0.5272 0.5897 0.6117 
0.2744 0.1868 0.9433 0.3421 0.0873 0.9356 0.4845 0.2475 0.839 
0.389 0.3715 0.843 0.2167 0.0818 0.9728 0.2665 0.0002 0.9638 
0.3421 0.0873 0.9356 0.2744 0.1868 0.9433 0.9692 0.109 -0.2209 
0.8915 0.3619 -0.2725 0.9205 0.3907 0 0.9929 0.1189 0 
0.8915 0.3619 -0.2725 0.7638 0.5735 -0.2959 0.7925 0.6098 0 
0.9205 0.3907 0 0.9929 0.1189 0 0.9205 0.3907 0 
0.8915 0.3619 0.2725 0.9692 0.109 0.2209 0.9205 0.3907 0 
0.7925 0.6098 0 0.7638 0.5735 0.2959 0.8915 0.3619 0.2725 
0.923 -0.1437 -0.3569 0.8792 0.0398 -0.4747 0.9692 0.109 -0.2209 
0.9738 -0.1521 -0.1689 0.8792 0.0398 -0.4747 0.7815 0.2543 -0.5697 
0.8915 0.3619 -0.2725 0.9692 0.109 -0.2209 0.7815 0.2543 -0.5697 
0.6563 0.4444 -0.6096 0.7638 0.5735 -0.2959 0.8915 0.3619 -0.2725 
0.6563 0.4444 -0.6096 0.5272 0.5897 -0.6117 0.6141 0.7306 -0.2985 
0.7638 0.5735 -0.2959 0.7638 0.5735 -0.2959 0.6141 0.7306 -0.2985 
0.6374 0.7705 0 0.7925 0.6098 0 0.7925 0.6098 0 
0.6374 0.7705 0 0.6141 0.7306 0.2985 0.7638 0.5735 0.2959 
0.7638 0.5735 0.2959 0.6141 0.7306 0.2985 0.5272 0.5897 0.6117 
0.6563 0.4444 0.6096 0.8915 0.3619 0.2725 0.7638 0.5735 0.2959 
0.6563 0.4444 0.6096 0.7815 0.2544 0.5697 0.9692 0.109 0.2209 
0.8915 0.3619 0.2725 0.7815 0.2544 0.5697 0.8792 0.0398 0.4747 
0.9738 -0.1521 0.1689 0.9692 0.109 0.2209 0.8792 0.0398 0.4747 
0.923 -0.1437 0.3569 0.9875 -0.1573 0 0.9929 0.1189 0 
0.9692 0.109 0.2209 0.9738 -0.1521 0.1689 0.9738 -0.1521 -0.1689 
0.9692 0.109 -0.2209 0.9929 0.1189 0 0.9875 -0.1573 0 
0.4462 0.8467 -0.2897 0.2423 0.9321 -0.269 0.2532 0.9674 0 
0.4629 0.8864 0 0.2423 0.9321 -0.269 -0.0102 0.9732 -0.2295 
-0.0148 0.9999 0 0.2532 0.9674 0 0.4629 0.8864 0 
0.2532 0.9674 0 0.2423 0.9321 0.269 0.4462 0.8467 0.2897 
0.2532 0.9674 0 -0.0148 0.9999 0 -0.0102 0.9732 0.2295 
0.2423 0.9321 0.269 0.5272 0.5897 -0.6117 0.3821 0.7053 -0.5971 
0.4462 0.8467 -0.2897 0.6141 0.7306 -0.2985 0.3821 0.7053 -0.5971 
0.1937 0.8044 -0.5616 0.2423 0.9321 -0.269 0.4462 0.8467 -0.2897 
0.1937 0.8044 -0.5616 -0.0398 0.8706 -0.4904 -0.0102 0.9732 -0.2295 
0.2423 0.9321 -0.269 -0.0398 0.8706 -0.4904 -0.2676 0.8826 -0.3865 
-0.3045 0.9322 -0.1955 -0.0102 0.9732 -0.2295 -0.0102 0.9732 -0.2295 
-0.3045 0.9322 -0.1955 -0.3196 0.9475 0 -0.0148 0.9999 0 
-0.0148 0.9999 0 -0.3196 0.9475 0 -0.3045 0.9322 0.1954 
-0.0102 0.9732 0.2295 -0.0102 0.9732 0.2295 -0.3045 0.9322 0.1954 
-0.2676 0.8826 0.3865 -0.0398 0.8706 0.4904 0.2423 0.9321 0.269 
-0.0102 0.9732 0.2295 -0.0398 0.8706 0.4904 0.1937 0.8044 0.5616 
0.4462 0.8467 0.2897 0.2423 0.9321 0.269 0.1937 0.8044 0.5616 
0.3821 0.7053 0.5971 0.6141 0.7306 0.2985 0.4462 0.8467 0.2897 
0.3821 0.7053 0.5971 0.5272 0.5897 0.6117 0.6374 0.7705 0 
0.4629 0.8864 0 0.4462 0.8467 0.2897 0.6141 0.7306 0.2985 
0.6141 0.7306 -0.2985 0.4462 0.8467 -0.2897 0.4629 0.8864 0 
0.6374 0.7705 0 0.1535 0.1492 -0.9768 0.0455 0.2531 -0.9663 
0.0452 0.3948 -0.9176 0.191 0.2767 -0.9417 0.0455 0.2531 -0.9663 
-0.1158 0.4499 -0.8855 -0.1812 0.5621 -0.807 0.0452 0.3948 -0.9176 
0.191 0.2767 -0.9417 0.0452 0.3948 -0.9176 0.1084 0.594 -0.7971 
0.2777 0.4793 -0.8325 0.0452 0.3948 -0.9176 -0.1812 0.5621 -0.807 
-0.1303 0.7061 -0.6959 0.1084 0.594 -0.7971 0.2006 0.036 -0.979 
0.1637 0.0736 -0.9837 0.1535 0.1492 -0.9768 0.2167 0.0818 -0.9728 
0.1637 0.0736 -0.9837 0.0956 0.1501 -0.984 0.0455 0.2531 -0.9663 
0.1535 0.1492 -0.9768 0.0956 0.1501 -0.984 -0.0135 0.3051 -0.9522 
-0.1158 0.4499 -0.8855 0.0455 0.2531 -0.9663 -0.0135 0.3051 -0.9522 
0 0.5719 -0.8203 -0.3167 0.7158 -0.6224 -0.1158 0.4499 -0.8855 
-0.1158 0.4499 -0.8855 -0.3167 0.7158 -0.6224 -0.4308 0.7273 -0.5343 
-0.1812 0.5621 -0.807 -0.1812 0.5621 -0.807 -0.4308 0.7273 -0.5343 
-0.3828 0.7967 -0.4677 -0.1303 0.7061 -0.6959 -0.1303 0.7061 -0.6959 
-0.3828 0.7967 -0.4677 -0.2676 0.8826 -0.3865 -0.0398 0.8706 -0.4904 
0.1084 0.594 -0.7971 -0.1303 0.7061 -0.6959 -0.0398 0.8706 -0.4904 
0.1937 0.8044 -0.5616 0.2777 0.4793 -0.8325 0.1084 0.594 -0.7971 
0.1937 0.8044 -0.5616 0.3821 0.7053 -0.5971 0.389 0.3715 -0.843 
0.2777 0.4793 -0.8325 0.3821 0.7053 -0.5971 0.5272 0.5897 -0.6117 
0.2744 0.1868 -0.9433 0.191 0.2767 -0.9417 0.2777 0.4793 -0.8325 
0.389 0.3715 -0.843 0.2167 0.0818 -0.9728 0.1535 0.1492 -0.9768 
0.191 0.2767 -0.9417 0.2744 0.1868 -0.9433 0.5056 -0.2885 -0.8131 
0.3513 -0.1164 -0.929 0.447 -0.0475 -0.8932 0.6094 -0.2234 -0.7607 
0.3513 -0.1164 -0.929 0.2665 0.0002 -0.9638 0.3421 0.0873 -0.9356 
0.447 -0.0475 -0.8932 0.6094 -0.2234 -0.7607 0.447 -0.0475 -0.8932 
0.6028 0.0872 -0.7931 0.7349 -0.1028 -0.6703 0.447 -0.0475 -0.8932 
0.3421 0.0873 -0.9356 0.4845 0.2475 -0.839 0.6028 0.0872 -0.7931 
0.6102 -0.5261 -0.5923 0.4338 -0.2961 -0.8509 0.5056 -0.2885 -0.8131 
0.6834 -0.4781 -0.5517 0.4338 -0.2961 -0.8509 0.3044 -0.1263 -0.9441 
0.3513 -0.1164 -0.929 0.5056 -0.2885 -0.8131 0.3044 -0.1263 -0.9441 
0.2356 -0.0243 -0.9715 0.2665 0.0002 -0.9638 0.3513 -0.1164 -0.929 
0.2356 -0.0243 -0.9715 0.2006 0.036 -0.979 0.2167 0.0818 -0.9728 
0.2665 0.0002 -0.9638 0.2665 0.0002 -0.9638 0.2167 0.0818 -0.9728 
0.2744 0.1868 -0.9433 0.3421 0.0873 -0.9356 0.3421 0.0873 -0.9356 
0.2744 0.1868 -0.9433 0.389 0.3715 -0.843 0.4845 0.2475 -0.839 
0.4845 0.2475 -0.839 0.389 0.3715 -0.843 0.5272 0.5897 -0.6117 
0.6563 0.4444 -0.6096 0.6028 0.0872 -0.7931 0.4845 0.2475 -0.839 
0.6563 0.4444 -0.6096 0.7815 0.2543 -0.5697 0.7349 -0.1028 -0.6703 
0.6028 0.0872 -0.7931 0.7815 0.2543 -0.5697 0.8792 0.0398 -0.4747 
0.8605 -0.276 -0.4281 0.7349 -0.1028 -0.6703 0.8792 0.0398 -0.4747 
0.923 -0.1437 -0.3569 0.7749 -0.3937 -0.4944 0.6094 -0.2234 -0.7607 
0.7349 -0.1028 -0.6703 0.8605 -0.276 -0.4281 0.6834 -0.4781 -0.5517 
0.5056 -0.2885 -0.8131 0.6094 -0.2234 -0.7607 0.7749 -0.3937 -0.4944 
-0.4455 0.8601 -0.2484 -0.4632 0.8862 0 -0.6016 0.7988 0 
-0.5698 0.791 -0.2228 -0.4632 0.8862 0 -0.4455 0.8601 0.2484 
-0.5698 0.791 0.2228 -0.6016 0.7988 0 -0.5698 0.791 -0.2228 
-0.6016 0.7988 0 -0.5363 0.844 0 -0.5122 0.8345 -0.2031 
-0.6016 0.7988 0 -0.5698 0.791 0.2228 -0.5122 0.8345 0.2031 
-0.5363 0.844 0 0 0.5719 -0.8203 0 0.9564 -0.2922 
-0.4455 0.8601 -0.2484 -0.3167 0.7158 -0.6224 0 0.9564 -0.2922 
0 1 0 -0.4632 0.8862 0 -0.4455 0.8601 -0.2484 
0 1 0 0 0.9564 0.2922 -0.4455 0.8601 0.2484 
-0.4632 0.8862 0 0 0.9564 0.2922 0 0.5719 0.8203 
-0.3167 0.7158 0.6224 -0.4455 0.8601 0.2484 -0.4455 0.8601 0.2484 
-0.3167 0.7158 0.6224 -0.4308 0.7273 0.5343 -0.5698 0.791 0.2228 
-0.5698 0.791 0.2228 -0.4308 0.7273 0.5343 -0.3828 0.7967 0.4677 
-0.5122 0.8345 0.2031 -0.5122 0.8345 0.2031 -0.3828 0.7967 0.4677 
-0.2676 0.8826 0.3865 -0.3045 0.9322 0.1954 -0.5363 0.844 0 
-0.5122 0.8345 0.2031 -0.3045 0.9322 0.1954 -0.3196 0.9475 0 
-0.5122 0.8345 -0.2031 -0.5363 0.844 0 -0.3196 0.9475 0 
-0.3045 0.9322 -0.1955 -0.3828 0.7967 -0.4677 -0.5122 0.8345 -0.2031 
-0.3045 0.9322 -0.1955 -0.2676 0.8826 -0.3865 -0.4308 0.7273 -0.5343 
-0.5698 0.791 -0.2228 -0.5122 0.8345 -0.2031 -0.3828 0.7967 -0.4677 
-0.3167 0.7158 -0.6224 -0.4455 0.8601 -0.2484 -0.5698 0.791 -0.2228 
-0.4308 0.7273 -0.5343 -0.1158 0.4499 0.8855 0.0455 0.2531 0.9663 
0.0452 0.3948 0.9176 -0.1812 0.5621 0.807 0.0455 0.2531 0.9663 
0.1535 0.1492 0.9768 0.191 0.2767 0.9417 0.0452 0.3948 0.9176 
-0.1812 0.5621 0.807 0.0452 0.3948 0.9176 0.1084 0.594 0.7971 
-0.1303 0.7061 0.6959 0.0452 0.3948 0.9176 0.191 0.2767 0.9417 
0.2777 0.4793 0.8325 0.1084 0.594 0.7971 0 0.5719 0.8203 
-0.0135 0.3051 0.9522 -0.1158 0.4499 0.8855 -0.3167 0.7158 0.6224 
-0.0135 0.3051 0.9522 0.0956 0.1501 0.984 0.0455 0.2531 0.9663 
-0.1158 0.4499 0.8855 0.0956 0.1501 0.984 0.1637 0.0736 0.9837 
0.1535 0.1492 0.9768 0.0455 0.2531 0.9663 0.1637 0.0736 0.9837 
0.2006 0.036 0.979 0.2167 0.0818 0.9728 0.1535 0.1492 0.9768 
0.1535 0.1492 0.9768 0.2167 0.0818 0.9728 0.2744 0.1868 0.9433 
0.191 0.2767 0.9417 0.191 0.2767 0.9417 0.2744 0.1868 0.9433 
0.389 0.3715 0.843 0.2777 0.4793 0.8325 0.2777 0.4793 0.8325 
0.389 0.3715 0.843 0.5272 0.5897 0.6117 0.3821 0.7053 0.5971 
0.1084 0.594 0.7971 0.2777 0.4793 0.8325 0.3821 0.7053 0.5971 
0.1937 0.8044 0.5616 -0.1303 0.7061 0.6959 0.1084 0.594 0.7971 
0.1937 0.8044 0.5616 -0.0398 0.8706 0.4904 -0.3828 0.7967 0.4677 
-0.1303 0.7061 0.6959 -0.0398 0.8706 0.4904 -0.2676 0.8826 0.3865 
-0.4308 0.7273 0.5343 -0.1812 0.5621 0.807 -0.1303 0.7061 0.6959 
-0.3828 0.7967 0.4677 -0.3167 0.7158 0.6224 -0.1158 0.4499 0.8855 
-0.1812 0.5621 0.807 -0.4308 0.7273 0.5343 0.5417 -0.8009 -0.255 
0.7195 -0.6873 -0.0992 0.7547 -0.6561 0 0.5918 -0.8061 0 
0.7195 -0.6873 -0.0992 0.7364 -0.6765 0.0061 0.7538 -0.6571 0 
0.7547 -0.6561 0 0.5918 -0.8061 0 0.7547 -0.6561 0 
0.7195 -0.6873 0.0992 0.5417 -0.8009 0.255 0.7547 -0.6561 0 
0.7538 -0.6571 0 0.7364 -0.6765 -0.0061 0.7195 -0.6873 0.0992 
0 -0.7994 -0.6008 0.4233 -0.7591 -0.4946 0.5417 -0.8009 -0.255 
0 -0.9413 -0.3377 0.4233 -0.7591 -0.4946 0.623 -0.7242 -0.2956 
0.7195 -0.6873 -0.0992 0.5417 -0.8009 -0.255 0.623 -0.7242 -0.2956 
0.6866 -0.7157 -0.1279 0.7364 -0.6765 0.0061 0.7195 -0.6873 -0.0992 
0.6866 -0.7157 -0.1279 0.687 -0.7257 -0.0373 0.6977 -0.7151 0.0415 
0.7364 -0.6765 0.0061 0.7364 -0.6765 0.0061 0.6977 -0.7151 0.0415 
0.7009 -0.7132 0 0.7538 -0.6571 0 0.7538 -0.6571 0 
0.7009 -0.7132 0 0.6977 -0.7151 -0.0415 0.7364 -0.6765 -0.0061 
0.7364 -0.6765 -0.0061 0.6977 -0.7151 -0.0415 0.687 -0.7257 0.0373 
0.6866 -0.7157 0.1279 0.7195 -0.6873 0.0992 0.7364 -0.6765 -0.0061 
0.6866 -0.7157 0.1279 0.623 -0.7242 0.2956 0.5417 -0.8009 0.255 
0.7195 -0.6873 0.0992 0.623 -0.7242 0.2956 0.4233 -0.7591 0.4946 
0 -0.9413 0.3377 0.5417 -0.8009 0.255 0.4233 -0.7591 0.4946 
0 -0.7994 0.6008 0 -1 0 0.5918 -0.8061 0 
0.5417 -0.8009 0.255 0 -0.9413 0.3377 0 -0.9413 -0.3377 
0.5417 -0.8009 -0.255 0.5918 -0.8061 0 0 -1 0 
0.3542 -0.2472 -0.9019 0.2498 -0.1938 -0.9487 0.2021 -0.0568 -0.9777 
0.2669 -0.0971 -0.9588 0.2498 -0.1938 -0.9487 0.1346 -0.164 -0.9772 
0.1089 -0.0207 -0.9938 0.2021 -0.0568 -0.9777 0.2669 -0.0971 -0.9588 
0.2021 -0.0568 -0.9777 0.1532 0.0551 -0.9866 0.2084 0.0034 -0.978 
0.2021 -0.0568 -0.9777 0.1089 -0.0207 -0.9938 0.0602 0.1292 -0.9898 
0.1532 0.0551 -0.9866 0.6102 -0.5261 -0.5923 0.4438 -0.4252 -0.7888 
0.3542 -0.2472 -0.9019 0.4338 -0.2961 -0.8509 0.4438 -0.4252 -0.7888 
0.2991 -0.3534 -0.8863 0.2498 -0.1938 -0.9487 0.3542 -0.2472 -0.9019 
0.2991 -0.3534 -0.8863 0.1566 -0.3179 -0.9351 0.1346 -0.164 -0.9772 
0.2498 -0.1938 -0.9487 0.1566 -0.3179 -0.9351 0 -0.3072 -0.9516 
0 -0.1537 -0.9881 0.1346 -0.164 -0.9772 0.1346 -0.164 -0.9772 
0 -0.1537 -0.9881 0 -0.0046 -1 0.1089 -0.0207 -0.9938 
0.1089 -0.0207 -0.9938 0 -0.0046 -1 0 0.1759 -0.9844 
0.0602 0.1292 -0.9898 0.0602 0.1292 -0.9898 0 0.1759 -0.9844 
0 0.5719 -0.8203 -0.0135 0.3051 -0.9522 0.1532 0.0551 -0.9866 
0.0602 0.1292 -0.9898 -0.0135 0.3051 -0.9522 0.0956 0.1501 -0.984 
0.2084 0.0034 -0.978 0.1532 0.0551 -0.9866 0.0956 0.1501 -0.984 
0.1637 0.0736 -0.9837 0.2356 -0.0243 -0.9715 0.2084 0.0034 -0.978 
0.1637 0.0736 -0.9837 0.2006 0.036 -0.979 0.3044 -0.1263 -0.9441 
0.2669 -0.0971 -0.9588 0.2084 0.0034 -0.978 0.2356 -0.0243 -0.9715 
0.4338 -0.2961 -0.8509 0.3542 -0.2472 -0.9019 0.2669 -0.0971 -0.9588 
0.3044 -0.1263 -0.9441 0.1346 -0.164 0.9772 0.2498 -0.1938 0.9487 
0.2021 -0.0568 0.9777 0.1089 -0.0207 0.9938 0.2498 -0.1938 0.9487 