# vtk DataFile Version 4.2
vtk output
ASCII
DATASET POLYDATA
FIELD FieldData 1
MaterialNames 1 1 string
None

POINTS 1792 float
0.036631 -0.3032 -0.102047 0.051858 -0.250701 -0.147076 0.102328 -0.236822 -0.136598 
0.073039 -0.287504 -0.0962 0.051858 -0.250701 -0.147076 0.067552 -0.179522 -0.191893 
0.134152 -0.168291 -0.177325 0.102328 -0.236822 -0.136598 0.073039 -0.287504 -0.0962 
0.102328 -0.236822 -0.136598 0.14884 -0.21898 -0.117895 0.107373 -0.266512 -0.084809 
0.102328 -0.236822 -0.136598 0.134152 -0.168291 -0.177325 0.197549 -0.152111 -0.152689 
0.14884 -0.21898 -0.117895 -0 -0.344877 -0.062494 0 -0.309653 -0.103828 
0.036631 -0.3032 -0.102047 0.024602 -0.337716 -0.061822 0 -0.309653 -0.103828 
-0 -0.256102 -0.150372 0.051858 -0.250701 -0.147076 0.036631 -0.3032 -0.102047 
-0 -0.256102 -0.150372 -0 -0.183542 -0.196747 0.067552 -0.179522 -0.191893 
0.051858 -0.250701 -0.147076 -0 -0.183542 -0.196747 -0 -0.093424 -0.235913 
0.079936 -0.091167 -0.229873 0.067552 -0.179522 -0.191893 0.067552 -0.179522 -0.191893 
0.079936 -0.091167 -0.229873 0.159596 -0.083431 -0.212901 0.134152 -0.168291 -0.177325 
0.134152 -0.168291 -0.177325 0.159596 -0.083431 -0.212901 0.238948 -0.068276 -0.186211 
0.197549 -0.152111 -0.152689 0.197549 -0.152111 -0.152689 0.238948 -0.068276 -0.186211 
0.324602 -0.038289 -0.145031 0.248694 -0.137087 -0.114659 0.14884 -0.21898 -0.117895 
0.197549 -0.152111 -0.152689 0.248694 -0.137087 -0.114659 0.184085 -0.202029 -0.088194 
0.107373 -0.266512 -0.084809 0.14884 -0.21898 -0.117895 0.184085 -0.202029 -0.088194 
0.133083 -0.248515 -0.065476 0.078545 -0.296419 -0.05501 0.107373 -0.266512 -0.084809 
0.133083 -0.248515 -0.065476 0.101448 -0.275378 -0.049781 0.050735 -0.320323 -0.05952 
0.073039 -0.287504 -0.0962 0.107373 -0.266512 -0.084809 0.078545 -0.296419 -0.05501 
0.024602 -0.337716 -0.061822 0.036631 -0.3032 -0.102047 0.073039 -0.287504 -0.0962 
0.050735 -0.320323 -0.05952 0.416064 0.027358 0.071822 0.414662 0.021417 0 
0.468175 0.102306 -0 0.470233 0.109432 0.067241 0.414662 0.021417 0 
0.416063 0.027358 -0.071822 0.470233 0.109432 -0.067241 0.468175 0.102306 -0 
0.470233 0.109432 0.067241 0.468175 0.102306 -0 0.508282 0.180384 -0 
0.507219 0.185239 0.060594 0.468175 0.102306 -0 0.470233 0.109432 -0.067241 
0.507219 0.185239 -0.060594 0.508282 0.180384 -0 0.324602 -0.038289 0.145031 
0.34779 -0.055791 0.071143 0.416064 0.027358 0.071822 0.40885 0.055968 0.134454 
0.34779 -0.055791 0.071143 0.349187 -0.057243 0 0.414662 0.021417 0 
0.416064 0.027358 0.071822 0.349187 -0.057243 0 0.34779 -0.055791 -0.071143 
0.416063 0.027358 -0.071822 0.414662 0.021417 0 0.34779 -0.055791 -0.071143 
0.324602 -0.038289 -0.145031 0.40885 0.055968 -0.134454 0.416063 0.027358 -0.071822 
0.416063 0.027358 -0.071822 0.40885 0.055968 -0.134454 0.464148 0.135978 -0.124628 
0.470233 0.109432 -0.067241 0.470233 0.109432 -0.067241 0.464148 0.135978 -0.124628 
0.499997 0.20505 -0.110954 0.507219 0.185239 -0.060594 0.507219 0.185239 -0.060594 
0.499997 0.20505 -0.110954 0.517437 0.252172 -0.096122 0.527673 0.254088 -0.056827 
0.508282 0.180384 -0 0.507219 0.185239 -0.060594 0.527673 0.254088 -0.056827 
0.532971 0.255149 -0 0.507219 0.185239 0.060594 0.508282 0.180384 -0 
0.532971 0.255149 -0 0.527673 0.254088 0.056827 0.499997 0.20505 0.110954 
0.507219 0.185239 0.060594 0.527673 0.254088 0.056827 0.517437 0.252172 0.096122 
0.464148 0.135978 0.124628 0.470233 0.109432 0.067241 0.507219 0.185239 0.060594 
0.499997 0.20505 0.110954 0.40885 0.055968 0.134454 0.416064 0.027358 0.071822 
0.470233 0.109432 0.067241 0.464148 0.135978 0.124628 0.197549 -0.152111 0.152689 
0.134152 -0.168291 0.177325 0.102328 -0.236822 0.136598 0.14884 -0.21898 0.117895 
0.134152 -0.168291 0.177325 0.067552 -0.179522 0.191893 0.051858 -0.250701 0.147076 
0.102328 -0.236822 0.136598 0.14884 -0.21898 0.117895 0.102328 -0.236822 0.136598 
0.073039 -0.287504 0.0962 0.107373 -0.266512 0.084809 0.102328 -0.236822 0.136598 
0.051858 -0.250701 0.147076 0.036631 -0.3032 0.102047 0.073039 -0.287504 0.0962 
0.324602 -0.038289 0.145031 0.238948 -0.068276 0.186211 0.197549 -0.152111 0.152689 
0.248694 -0.137087 0.114659 0.238948 -0.068276 0.186211 0.159596 -0.083431 0.212901 
0.134152 -0.168291 0.177325 0.197549 -0.152111 0.152689 0.159596 -0.083431 0.212901 
0.079936 -0.091167 0.229873 0.067552 -0.179522 0.191893 0.134152 -0.168291 0.177325 
0.079936 -0.091167 0.229873 -0 -0.093424 0.235913 -0 -0.183542 0.196747 
0.067552 -0.179522 0.191893 0.067552 -0.179522 0.191893 -0 -0.183542 0.196747 
-0 -0.256102 0.150372 0.051858 -0.250701 0.147076 0.051858 -0.250701 0.147076 
-0 -0.256102 0.150372 -0 -0.309653 0.103828 0.036631 -0.3032 0.102047 
0.036631 -0.3032 0.102047 -0 -0.309653 0.103828 -0 -0.344877 0.062494 
0.024602 -0.337716 0.061822 0.073039 -0.287504 0.0962 0.036631 -0.3032 0.102047 
0.024602 -0.337716 0.061822 0.050735 -0.320323 0.05952 0.107373 -0.266512 0.084809 
0.073039 -0.287504 0.0962 0.050735 -0.320323 0.05952 0.078545 -0.296419 0.05501 
0.133083 -0.248515 0.065476 0.107373 -0.266512 0.084809 0.078545 -0.296419 0.05501 
0.101448 -0.275378 0.049781 0.184085 -0.202029 0.088194 0.14884 -0.21898 0.117895 
0.107373 -0.266512 0.084809 0.133083 -0.248515 0.065476 0.248694 -0.137087 0.114659 
0.197549 -0.152111 0.152689 0.14884 -0.21898 0.117895 0.184085 -0.202029 0.088194 
0.14314 -0.239241 -0.035525 0.202303 -0.191798 -0.047027 0.205671 -0.186435 0 
0.143896 -0.234592 0 0.202303 -0.191798 -0.047027 0.272987 -0.130873 -0.060498 
0.276269 -0.126993 0 0.205671 -0.186435 0 0.143896 -0.234592 0 
0.205671 -0.186435 0 0.202303 -0.191798 0.047027 0.14314 -0.239241 0.035525 
0.205671 -0.186435 0 0.276269 -0.126993 0 0.272987 -0.130873 0.060498 
0.202303 -0.191798 0.047027 0.101448 -0.275378 -0.049781 0.133083 -0.248515 -0.065476 
0.14314 -0.239241 -0.035525 0.097361 -0.276641 -0.02834 0.133083 -0.248515 -0.065476 
0.184085 -0.202029 -0.088194 0.202303 -0.191798 -0.047027 0.14314 -0.239241 -0.035525 
0.184085 -0.202029 -0.088194 0.248694 -0.137087 -0.114659 0.272987 -0.130873 -0.060498 
0.202303 -0.191798 -0.047027 0.248694 -0.137087 -0.114659 0.324602 -0.038289 -0.145031 
0.34779 -0.055791 -0.071143 0.272987 -0.130873 -0.060498 0.272987 -0.130873 -0.060498 
0.34779 -0.055791 -0.071143 0.349187 -0.057243 0 0.276269 -0.126993 0 
0.276269 -0.126993 0 0.349187 -0.057243 0 0.34779 -0.055791 0.071143 
0.272987 -0.130873 0.060498 0.272987 -0.130873 0.060498 0.34779 -0.055791 0.071143 
0.324602 -0.038289 0.145031 0.248694 -0.137087 0.114659 0.202303 -0.191798 0.047027 
0.272987 -0.130873 0.060498 0.248694 -0.137087 0.114659 0.184085 -0.202029 0.088194 
0.14314 -0.239241 0.035525 0.202303 -0.191798 0.047027 0.184085 -0.202029 0.088194 
0.133083 -0.248515 0.065476 0.097361 -0.276641 0.02834 0.14314 -0.239241 0.035525 
0.133083 -0.248515 0.065476 0.101448 -0.275378 0.049781 0.09461 -0.275112 0 
0.143896 -0.234592 0 0.14314 -0.239241 0.035525 0.097361 -0.276641 0.02834 
0.097361 -0.276641 -0.02834 0.14314 -0.239241 -0.035525 0.143896 -0.234592 0 
0.09461 -0.275112 0 0.354678 0.254257 0.208779 0.380569 0.186704 0.197976 
0.430211 0.245876 0.1841 0.398273 0.307981 0.194476 0.380569 0.186704 0.197976 
0.398616 0.11539 0.17578 0.45173 0.184654 0.162894 0.430211 0.245876 0.1841 
0.398273 0.307981 0.194476 0.430211 0.245876 0.1841 0.468536 0.304489 0.161947 
0.434505 0.362766 0.170322 0.430211 0.245876 0.1841 0.45173 0.184654 0.162894 
0.489119 0.248056 0.143647 0.468536 0.304489 0.161947 0.288802 0.26752 0.221894 
0.303642 0.215692 0.21998 0.354678 0.254257 0.208779 0.317076 0.307997 0.214236 
0.303642 0.215692 0.21998 0.32002 0.140763 0.211218 0.380569 0.186704 0.197976 
0.354678 0.254257 0.208779 0.32002 0.140763 0.211218 0.330935 0.056009 0.190527 
0.398616 0.11539 0.17578 0.380569 0.186704 0.197976 0.330935 0.056009 0.190527 
0.324602 -0.038289 0.145031 0.40885 0.055968 0.134454 0.398616 0.11539 0.17578 
0.398616 0.11539 0.17578 0.40885 0.055968 0.134454 0.464148 0.135978 0.124628 
0.45173 0.184654 0.162894 0.45173 0.184654 0.162894 0.464148 0.135978 0.124628 
0.499997 0.20505 0.110954 0.489119 0.248056 0.143647 0.489119 0.248056 0.143647 
0.499997 0.20505 0.110954 0.517437 0.252172 0.096122 0.513788 0.29509 0.111632 
0.468536 0.304489 0.161947 0.489119 0.248056 0.143647 0.513788 0.29509 0.111632 
0.495958 0.351779 0.124465 0.434505 0.362766 0.170322 0.468536 0.304489 0.161947 
0.495958 0.351779 0.124465 0.461324 0.407936 0.130021 0.386704 0.414556 0.173464 
0.434505 0.362766 0.170322 0.461324 0.407936 0.130021 0.412388 0.45692 0.131266 
0.35317 0.361845 0.199399 0.398273 0.307981 0.194476 0.434505 0.362766 0.170322 
0.386704 0.414556 0.173464 0.317076 0.307997 0.214236 0.354678 0.254257 0.208779 
0.398273 0.307981 0.194476 0.35317 0.361845 0.199399 0.529895 0.318483 -0.061487 
0.512766 0.379729 -0.067758 0.518531 0.38855 -0 0.535963 0.324922 -0 
0.512766 0.379729 -0.067758 0.477789 0.435861 -0.07054 0.483169 0.445023 -0 
0.518531 0.38855 -0 0.535963 0.324922 -0 0.518531 0.38855 -0 
0.512767 0.379729 0.067758 0.529895 0.318483 0.061487 0.518531 0.38855 -0 
0.483169 0.445023 -0 0.477789 0.435861 0.07054 0.512767 0.379729 0.067758 
0.517437 0.252172 -0.096122 0.513788 0.29509 -0.111632 0.529895 0.318483 -0.061487 
0.527673 0.254088 -0.056827 0.513788 0.29509 -0.111632 0.495958 0.351779 -0.124465 
0.512766 0.379729 -0.067758 0.529895 0.318483 -0.061487 0.495958 0.351779 -0.124465 
0.461324 0.407936 -0.130021 0.477789 0.435861 -0.07054 0.512766 0.379729 -0.067758 
0.461324 0.407936 -0.130021 0.412388 0.45692 -0.131266 0.428508 0.483348 -0.070891 
0.477789 0.435861 -0.07054 0.477789 0.435861 -0.07054 0.428508 0.483348 -0.070891 
0.433705 0.492012 -0 0.483169 0.445023 -0 0.483169 0.445023 -0 
0.433705 0.492012 -0 0.428508 0.483348 0.070891 0.477789 0.435861 0.07054 
0.477789 0.435861 0.07054 0.428508 0.483348 0.070891 0.412388 0.45692 0.131266 
0.461324 0.407936 0.130021 0.512767 0.379729 0.067758 0.477789 0.435861 0.07054 
[...]
CELL_DATA 448
FIELD FieldData 2
MaterialIds 1 448 int
0 0 0 0 0 0 0 0 0 
0 0 0 0 0 0 0 0 0 
0 0 0 0 0 0 0 0 0 
0 0 0 0 0 0 0 0 0 
0 0 0 0 0 0 0 0 0 
0 0 0 0 0 0 0 0 0 
0 0 0 0 0 0 0 0 0 
0 0 0 0 0 0 0 0 0 
0 0 0 0 0 0 0 0 0 
0 0 0 0 0 0 0 0 0 
0 0 0 0 0 0 0 0 0 
0 0 0 0 0 0 0 0 0 
0 0 0 0 0 0 0 0 0 
0 0 0 0 0 0 0 0 0 
0 0 0 0 0 0 0 0 0 
0 0 0 0 0 0 0 0 0 
0 0 0 0 0 0 0 0 0 
0 0 0 0 0 0 0 0 0 
0 0 0 0 0 0 0 0 0 
0 0 0 0 0 0 0 0 0 
0 0 0 0 0 0 0 0 0 
0 0 0 0 0 0 0 0 0 
0 0 0 0 0 0 0 0 0 
0 0 0 0 0 0 0 0 0 
0 0 0 0 0 0 0 0 0 
0 0 0 0 0 0 0 0 0 
0 0 0 0 0 0 0 0 0 
0 0 0 0 0 0 0 0 0 
0 0 0 0 0 0 0 0 0 
0 0 0 0 0 0 0 0 0 
0 0 0 0 0 0 0 0 0 
0 0 0 0 0 0 0 0 0 
0 0 0 0 0 0 0 0 0 
0 0 0 0 0 0 0 0 0 
0 0 0 0 0 0 0 0 0 
0 0 0 0 0 0 0 0 0 
0 0 0 0 0 0 0 0 0 
0 0 0 0 0 0 0 0 0 
0 0 0 0 0 0 0 0 0 
0 0 0 0 0 0 0 0 0 
0 0 0 0 0 0 0 0 0 
0 0 0 0 0 0 0 0 0 
0 0 0 0 0 0 0 0 0 
0 0 0 0 0 0 0 0 0 
0 0 0 0 0 0 0 0 0 
0 0 0 0 0 0 0 0 0 
0 0 0 0 0 0 0 0 0 
0 0 0 0 0 0 0 0 0 
0 0 0 0 0 0 0 0 0 
0 0 0 0 0 0 0 
METADATA
INFORMATION 0

GroupIds 1 448 float
0 0 0 0 0 0 0 0 0 
0 0 0 0 0 0 0 0 0 
0 0 0 0 0 0 0 0 0 
0 0 0 0 0 0 0 0 0 
0 0 0 0 0 0 0 0 0 
0 0 0 0 0 0 0 0 0 
0 0 0 0 0 0 0 0 0 
0 0 0 0 0 0 0 0 0 
0 0 0 0 0 0 0 0 0 
0 0 0 0 0 0 0 0 0 
0 0 0 0 0 0 0 0 0 
0 0 0 0 0 0 0 0 0 
0 0 0 0 0 0 0 0 0 
0 0 0 0 0 0 0 0 0 
0 0 0 0 0 0 0 0 0 
0 0 0 0 0 0 0 0 0 
0 0 0 0 0 0 0 0 0 
0 0 0 0 0 0 0 0 0 
0 0 0 0 0 0 0 0 0 
0 0 0 0 0 0 0 0 0 
0 0 0 0 0 0 0 0 0 
0 0 0 0 0 0 0 0 0 
0 0 0 0 0 0 0 0 0 
0 0 0 0 0 0 0 0 0 
0 0 0 0 0 0 0 0 0 
0 0 0 0 0 0 0 0 0 
0 0 0 0 0 0 0 0 0 
0 0 0 0 0 0 0 0 0 
0 0 0 0 0 0 0 0 0 
0 0 0 0 0 0 0 0 0 
0 0 0 0 0 0 0 0 0 
0 0 0 0 0 0 0 0 0 
0 0 0 0 0 0 0 0 0 
0 0 0 0 0 0 0 0 0 
0 0 0 0 0 0 0 0 0 
0 0 0 0 0 0 0 0 0 
0 0 0 0 0 0 0 0 0 
0 0 0 0 0 0 0 0 0 
0 0 0 0 0 0 0 0 0 
0 0 0 0 0 0 0 0 0 
0 0 0 0 0 0 0 0 0 
0 0 0 0 0 0 0 0 0 
0 0 0 0 0 0 0 0 0 
0 0 0 0 0 0 0 0 0 
0 0 0 0 0 0 0 0 0 
0 0 0 0 0 0 0 0 0 
0 0 0 0 0 0 0 0 0 
0 0 0 0 0 0 0 0 0 
0 0 0 0 0 0 0 0 0 
0 0 0 0 0 0 0 
METADATA
INFORMATION 0

POINT_DATA 1792
NORMALS Normals float
0.2917 -0.727 -0.6216 0.2216 -0.6199 -0.7527 0.4062 -0.6558 -0.6363 
0.4902 -0.7393 -0.4617 0.2216 -0.6199 -0.7527 0.1817 -0.4883 -0.8535 
0.347 -0.5293 -0.7742 0.4062 -0.6558 -0.6363 0.4902 -0.7393 -0.4617 
0.4062 -0.6558 -0.6363 0.5462 -0.7033 -0.455 0.5978 -0.7521 -0.2774 
0.4062 -0.6558 -0.6363 0.347 -0.5293 -0.7742 0.4993 -0.5981 -0.6268 
0.5462 -0.7033 -0.455 0 -0.8411 -0.5408 0 -0.7244 -0.6894 
0.2917 -0.727 -0.6216 0.4027 -0.8009 -0.4431 0 -0.7244 -0.6894 
0 -0.6073 -0.7945 0.2216 -0.6199 -0.7527 0.2917 -0.727 -0.6216 
0 -0.6073 -0.7945 0 -0.4749 -0.88 0.1817 -0.4883 -0.8535 
0.2216 -0.6199 -0.7527 0 -0.4749 -0.88 0 -0.3202 -0.9473 
0.1562 -0.331 -0.9306 0.1817 -0.4883 -0.8535 0.1817 -0.4883 -0.8535 
0.1562 -0.331 -0.9306 0.2988 -0.3666 -0.8811 0.347 -0.5293 -0.7742 
0.347 -0.5293 -0.7742 0.2988 -0.3666 -0.8811 0.444 -0.4379 -0.7817 
0.4993 -0.5981 -0.6268 0.4993 -0.5981 -0.6268 0.444 -0.4379 -0.7817 
0.6109 -0.5371 -0.5817 0.6233 -0.6722 -0.3995 0.5462 -0.7033 -0.455 
0.4993 -0.5981 -0.6268 0.6233 -0.6722 -0.3995 0.6267 -0.744 -0.2316 
0.5978 -0.7521 -0.2774 0.5462 -0.7033 -0.455 0.6267 -0.744 -0.2316 
0.6395 -0.7627 -0.0964 0.6588 -0.7465 -0.0929 0.5978 -0.7521 -0.2774 
0.6395 -0.7627 -0.0964 0.6586 -0.7525 -0.0059 0.5953 -0.762 -0.2546 
0.4902 -0.7393 -0.4617 0.5978 -0.7521 -0.2774 0.6588 -0.7465 -0.0929 
0.4027 -0.8009 -0.4431 0.2917 -0.727 -0.6216 0.4902 -0.7393 -0.4617 
0.5953 -0.762 -0.2546 0.7883 -0.5843 0.1928 0.8023 -0.5969 0 
0.8642 -0.5031 0 0.8569 -0.4861 0.1713 0.8023 -0.5969 0 
0.7883 -0.5843 -0.1928 0.8569 -0.4861 -0.1713 0.8642 -0.5031 0 
0.8569 -0.4861 0.1713 0.8642 -0.5031 0 0.9262 -0.377 0 
0.9196 -0.3612 0.1541 0.8642 -0.5031 0 0.8569 -0.4861 -0.1713 
0.9196 -0.3612 -0.1541 0.9262 -0.377 0 0.6109 -0.5371 0.5817 
0.7272 -0.6609 0.1854 0.7883 -0.5843 0.1928 0.6864 -0.4848 0.542 
0.7272 -0.6609 0.1854 0.7361 -0.6768 0 0.8023 -0.5969 0 
0.7883 -0.5843 0.1928 0.7361 -0.6768 0 0.7272 -0.6609 -0.1854 
0.7883 -0.5843 -0.1928 0.8023 -0.5969 0 0.7272 -0.6609 -0.1854 
0.6109 -0.5371 -0.5817 0.6864 -0.4848 -0.542 0.7883 -0.5843 -0.1928 
0.7883 -0.5843 -0.1928 0.6864 -0.4848 -0.542 0.7782 -0.3988 -0.4851 
0.8569 -0.4861 -0.1713 0.8569 -0.4861 -0.1713 0.7782 -0.3988 -0.4851 
0.8626 -0.2816 -0.4201 0.9196 -0.3612 -0.1541 0.9196 -0.3612 -0.1541 
0.8626 -0.2816 -0.4201 0.9243 -0.1498 -0.3511 0.9732 -0.1619 -0.1631 
0.9262 -0.377 0 0.9196 -0.3612 -0.1541 0.9732 -0.1619 -0.1631 
0.9856 -0.169 0 0.9196 -0.3612 0.1541 0.9262 -0.377 0 
0.9856 -0.169 0 0.9732 -0.1619 0.1631 0.8626 -0.2816 0.4201 
0.9196 -0.3612 0.1541 0.9732 -0.1619 0.1631 0.9243 -0.1498 0.3511 
0.7782 -0.3988 0.4851 0.8569 -0.4861 0.1713 0.9196 -0.3612 0.1541 
0.8626 -0.2816 0.4201 0.6864 -0.4848 0.542 0.7883 -0.5843 0.1928 
0.8569 -0.4861 0.1713 0.7782 -0.3988 0.4851 0.4993 -0.5981 0.6268 
0.347 -0.5293 0.7742 0.4062 -0.6558 0.6363 0.5462 -0.7033 0.455 
0.347 -0.5293 0.7742 0.1817 -0.4883 0.8535 0.2216 -0.6199 0.7527 
0.4062 -0.6558 0.6363 0.5462 -0.7033 0.455 0.4062 -0.6558 0.6363 
0.4902 -0.7393 0.4617 0.5978 -0.7521 0.2774 0.4062 -0.6558 0.6363 
0.2216 -0.6199 0.7527 0.2917 -0.727 0.6216 0.4902 -0.7393 0.4617 
0.6109 -0.5371 0.5817 0.444 -0.4379 0.7817 0.4993 -0.5981 0.6268 
0.6233 -0.6722 0.3995 0.444 -0.4379 0.7817 0.2988 -0.3666 0.8811 
0.347 -0.5293 0.7742 0.4993 -0.5981 0.6268 0.2988 -0.3666 0.8811 
0.1562 -0.331 0.9306 0.1817 -0.4883 0.8535 0.347 -0.5293 0.7742 
0.1562 -0.331 0.9306 0 -0.3202 0.9473 0 -0.4749 0.88 
0.1817 -0.4883 0.8535 0.1817 -0.4883 0.8535 0 -0.4749 0.88 
0 -0.6073 0.7945 0.2216 -0.6199 0.7527 0.2216 -0.6199 0.7527 
0 -0.6073 0.7945 0 -0.7244 0.6894 0.2917 -0.727 0.6216 
0.2917 -0.727 0.6216 0 -0.7244 0.6894 0 -0.8411 0.5408 
0.4027 -0.8009 0.4431 0.4902 -0.7393 0.4617 0.2917 -0.727 0.6216 
0.4027 -0.8009 0.4431 0.5953 -0.762 0.2546 0.5978 -0.7521 0.2774 
0.4902 -0.7393 0.4617 0.5953 -0.762 0.2546 0.6588 -0.7465 0.0929 
0.6395 -0.7627 0.0964 0.5978 -0.7521 0.2774 0.6588 -0.7465 0.0929 
0.6586 -0.7525 0.0059 0.6267 -0.744 0.2316 0.5462 -0.7033 0.455 
0.5978 -0.7521 0.2774 0.6395 -0.7627 0.0964 0.6233 -0.6722 0.3995 
0.4993 -0.5981 0.6268 0.5462 -0.7033 0.455 0.6267 -0.744 0.2316 
0.6365 -0.7704 0.0354 0.6429 -0.7652 -0.035 0.638 -0.77 0 
0.6306 -0.7761 0 0.6429 -0.7652 -0.035 0.678 -0.7246 -0.1234 
0.6765 -0.7364 0 0.638 -0.77 0 0.6306 -0.7761 0 
0.638 -0.77 0 0.6429 -0.7652 0.035 0.6365 -0.7704 -0.0354 
0.638 -0.77 0 0.6765 -0.7364 0 0.678 -0.7246 0.1234 
0.6429 -0.7652 0.035 0.6586 -0.7525 -0.0059 0.6395 -0.7627 -0.0964 
0.6365 -0.7704 0.0354 0.6678 -0.7407 0.0736 0.6395 -0.7627 -0.0964 
0.6267 -0.744 -0.2316 0.6429 -0.7652 -0.035 0.6365 -0.7704 0.0354 
0.6267 -0.744 -0.2316 0.6233 -0.6722 -0.3995 0.678 -0.7246 -0.1234 
0.6429 -0.7652 -0.035 0.6233 -0.6722 -0.3995 0.6109 -0.5371 -0.5817 
0.7272 -0.6609 -0.1854 0.678 -0.7246 -0.1234 0.678 -0.7246 -0.1234 
0.7272 -0.6609 -0.1854 0.7361 -0.6768 0 0.6765 -0.7364 0 
0.6765 -0.7364 0 0.7361 -0.6768 0 0.7272 -0.6609 0.1854 
0.678 -0.7246 0.1234 0.678 -0.7246 0.1234 0.7272 -0.6609 0.1854 
0.6109 -0.5371 0.5817 0.6233 -0.6722 0.3995 0.6429 -0.7652 0.035 
0.678 -0.7246 0.1234 0.6233 -0.6722 0.3995 0.6267 -0.744 0.2316 
0.6365 -0.7704 -0.0354 0.6429 -0.7652 0.035 0.6267 -0.744 0.2316 
0.6395 -0.7627 0.0964 0.6678 -0.7407 -0.0736 0.6365 -0.7704 -0.0354 
0.6395 -0.7627 0.0964 0.6586 -0.7525 0.0059 0.6717 -0.7407 0 
0.6306 -0.7761 0 0.6365 -0.7704 -0.0354 0.6678 -0.7407 -0.0736 
0.6678 -0.7407 0.0736 0.6365 -0.7704 0.0354 0.6306 -0.7761 0 
0.6717 -0.7407 0 0.2553 0.0087 0.9668 0.3451 -0.1112 0.9319 
0.4406 -0.0425 0.8967 0.33 0.0963 0.939 0.3451 -0.1112 0.9319 
0.5056 -0.289 0.8129 0.6093 -0.2234 0.7608 0.4406 -0.0425 0.8967 
0.33 0.0963 0.939 0.4406 -0.0425 0.8967 0.5961 0.0941 0.7973 
0.471 0.2605 0.8428 0.4406 -0.0425 0.8967 0.6093 -0.2234 0.7608 
0.7345 -0.1024 0.6708 0.5961 0.0941 0.7973 0.185 0.0493 0.9815 
0.2249 -0.0134 0.9743 0.2553 0.0087 0.9668 0.1993 0.094 0.9754 
0.2249 -0.0134 0.9743 0.2991 -0.1192 0.9467 0.3451 -0.1112 0.9319 
0.2553 0.0087 0.9668 0.2991 -0.1192 0.9467 0.4341 -0.2975 0.8503 
0.5056 -0.289 0.8129 0.3451 -0.1112 0.9319 0.4341 -0.2975 0.8503 
0.6109 -0.5371 0.5817 0.6864 -0.4848 0.542 0.5056 -0.289 0.8129 
0.5056 -0.289 0.8129 0.6864 -0.4848 0.542 0.7782 -0.3988 0.4851 
0.6093 -0.2234 0.7608 0.6093 -0.2234 0.7608 0.7782 -0.3988 0.4851 
0.8626 -0.2816 0.4201 0.7345 -0.1024 0.6708 0.7345 -0.1024 0.6708 
0.8626 -0.2816 0.4201 0.9243 -0.1498 0.3511 0.8789 0.0409 0.4751 
0.5961 0.0941 0.7973 0.7345 -0.1024 0.6708 0.8789 0.0409 0.4751 
0.7749 0.2655 0.5737 0.471 0.2605 0.8428 0.5961 0.0941 0.7973 
0.7749 0.2655 0.5737 0.6401 0.4631 0.613 0.3672 0.3895 0.8446 
0.471 0.2605 0.8428 0.6401 0.4631 0.613 0.5006 0.612 0.6122 
0.2551 0.2 0.946 0.33 0.0963 0.939 0.471 0.2605 0.8428 
0.3672 0.3895 0.8446 0.1993 0.094 0.9754 0.2553 0.0087 0.9668 
0.33 0.0963 0.939 0.2551 0.2 0.946 0.9691 0.11 -0.2207 
0.885 0.376 -0.2745 0.9141 0.4055 0 0.9928 0.1196 0 
0.885 0.376 -0.2745 0.7459 0.5958 -0.2978 0.7741 0.633 0 
0.9141 0.4055 0 0.9928 0.1196 0 0.9141 0.4055 0 
0.885 0.376 0.2745 0.9691 0.11 0.2207 0.9141 0.4055 0 
0.7741 0.633 0 0.7459 0.5958 0.2978 0.885 0.376 0.2745 
0.9243 -0.1498 -0.3511 0.8789 0.0409 -0.4751 0.9691 0.11 -0.2207 
0.9732 -0.1619 -0.1631 0.8789 0.0409 -0.4751 0.7749 0.2655 -0.5737 
0.885 0.376 -0.2745 0.9691 0.11 -0.2207 0.7749 0.2655 -0.5737 
0.6401 0.4631 -0.613 0.7459 0.5958 -0.2978 0.885 0.376 -0.2745 
0.6401 0.4631 -0.613 0.5006 0.612 -0.6122 0.584 0.7548 -0.2987 
0.7459 0.5958 -0.2978 0.7459 0.5958 -0.2978 0.584 0.7548 -0.2987 
0.6064 0.7951 0 0.7741 0.633 0 0.7741 0.633 0 
0.6064 0.7951 0 0.584 0.7548 0.2987 0.7459 0.5958 0.2978 
0.7459 0.5958 0.2978 0.584 0.7548 0.2987 0.5006 0.612 0.6122 
0.6401 0.4631 0.613 0.885 0.376 0.2745 0.7459 0.5958 0.2978 
0.6401 0.4631 0.613 0.7749 0.2655 0.5737 0.9691 0.11 0.2207 
0.885 0.376 0.2745 0.7749 0.2655 0.5737 0.8789 0.0409 0.4751 
0.9732 -0.1619 0.1631 0.9691 0.11 0.2207 0.8789 0.0409 0.4751 
0.9243 -0.1498 0.3511 0.9856 -0.169 0 0.9928 0.1196 0 
0.9691 0.11 0.2207 0.9732 -0.1619 0.1631 0.9732 -0.1619 -0.1631 
0.9691 0.11 -0.2207 0.9928 0.1196 0 0.9856 -0.169 0 
0.4065 0.8672 -0.2876 0.199 0.9437 -0.2643 0.2087 0.978 0 
0.4221 0.9066 0 0.199 0.9437 -0.2643 -0.0482 0.9735 -0.2232 
-0.0532 0.9986 0 0.2087 0.978 0 0.4221 0.9066 0 
0.2087 0.978 0 0.199 0.9437 0.2643 0.4065 0.8672 0.2876 
0.2087 0.978 0 -0.0532 0.9986 0 -0.0482 0.9735 0.2232 
0.199 0.9437 0.2643 0.5006 0.612 -0.6122 0.3468 0.7262 -0.5936 
0.4065 0.8672 -0.2876 0.584 0.7548 -0.2987 0.3468 0.7262 -0.5936 
0.1545 0.8185 -0.5533 0.199 0.9437 -0.2643 0.4065 0.8672 -0.2876 
0.1545 0.8185 -0.5533 -0.0748 0.8748 -0.4787 -0.0482 0.9735 -0.2232 
0.199 0.9437 -0.2643 -0.0748 0.8748 -0.4787 -0.2927 0.8793 -0.3757 
-0.3289 0.9253 -0.1889 -0.0482 0.9735 -0.2232 -0.0482 0.9735 -0.2232 
-0.3289 0.9253 -0.1889 -0.3436 0.9391 0 -0.0532 0.9986 0 
-0.0532 0.9986 0 -0.3436 0.9391 0 -0.3289 0.9253 0.1889 
-0.0482 0.9735 0.2232 -0.0482 0.9735 0.2232 -0.3289 0.9253 0.1889 
-0.2927 0.8793 0.3757 -0.0748 0.8748 0.4787 0.199 0.9437 0.2643 
-0.0482 0.9735 0.2232 -0.0748 0.8748 0.4787 0.1545 0.8185 0.5533 
0.4065 0.8672 0.2876 0.199 0.9437 0.2643 0.1545 0.8185 0.5533 
0.3468 0.7262 0.5936 0.584 0.7548 0.2987 0.4065 0.8672 0.2876 
0.3468 0.7262 0.5936 0.5006 0.612 0.6122 0.6064 0.7951 0 
0.4221 0.9066 0 0.4065 0.8672 0.2876 0.584 0.7548 0.2987 
0.584 0.7548 -0.2987 0.4065 0.8672 -0.2876 0.4221 0.9066 0 
0.6064 0.7951 0 0.1316 0.1641 -0.9776 0.0224 0.271 -0.9623 
0.0157 0.4089 -0.9124 0.1655 0.292 -0.942 0.0224 0.271 -0.9623 
-0.133 0.4698 -0.8727 -0.2084 0.5694 -0.7952 0.0157 0.4089 -0.9124 
0.1655 0.292 -0.942 0.0157 0.4089 -0.9124 0.075 0.6092 -0.7894 
0.2483 0.4986 -0.8304 0.0157 0.4089 -0.9124 -0.2084 0.5694 -0.7952 
-0.1601 0.7124 -0.6832 0.075 0.6092 -0.7894 0.185 0.0493 -0.9815 
0.1477 0.0908 -0.9848 0.1316 0.1641 -0.9776 0.1993 0.094 -0.9754 
0.1477 0.0908 -0.9848 0.0841 0.1735 -0.9812 0.0224 0.271 -0.9623 
0.1316 0.1641 -0.9776 0.0841 0.1735 -0.9812 -0.018 0.3339 -0.9424 
-0.133 0.4698 -0.8727 0.0224 0.271 -0.9623 -0.018 0.3339 -0.9424 
0 0.5984 -0.8012 -0.3236 0.7297 -0.6023 -0.133 0.4698 -0.8727 
-0.133 0.4698 -0.8727 -0.3236 0.7297 -0.6023 -0.4497 0.7253 -0.5211 
-0.2084 0.5694 -0.7952 -0.2084 0.5694 -0.7952 -0.4497 0.7253 -0.5211 
-0.4032 0.7936 -0.4555 -0.1601 0.7124 -0.6832 -0.1601 0.7124 -0.6832 
-0.4032 0.7936 -0.4555 -0.2927 0.8793 -0.3757 -0.0748 0.8748 -0.4787 
0.075 0.6092 -0.7894 -0.1601 0.7124 -0.6832 -0.0748 0.8748 -0.4787 
0.1545 0.8185 -0.5533 0.2483 0.4986 -0.8304 0.075 0.6092 -0.7894 
0.1545 0.8185 -0.5533 0.3468 0.7262 -0.5936 0.3672 0.3895 -0.8446 
0.2483 0.4986 -0.8304 0.3468 0.7262 -0.5936 0.5006 0.612 -0.6122 
0.2551 0.2 -0.946 0.1655 0.292 -0.942 0.2483 0.4986 -0.8304 
0.3672 0.3895 -0.8446 0.1993 0.094 -0.9754 0.1316 0.1641 -0.9776 
0.1655 0.292 -0.942 0.2551 0.2 -0.946 0.5056 -0.289 -0.8129 
0.3451 -0.1112 -0.9319 0.4406 -0.0425 -0.8967 0.6093 -0.2234 -0.7608 
0.3451 -0.1112 -0.9319 0.2553 0.0087 -0.9668 0.33 0.0963 -0.939 
0.4406 -0.0425 -0.8967 0.6093 -0.2234 -0.7608 0.4406 -0.0425 -0.8967 
0.5961 0.0941 -0.7973 0.7345 -0.1024 -0.6708 0.4406 -0.0425 -0.8967 
0.33 0.0963 -0.939 0.471 0.2605 -0.8428 0.5961 0.0941 -0.7973 
0.6109 -0.5371 -0.5817 0.4341 -0.2975 -0.8503 0.5056 -0.289 -0.8129 
0.6864 -0.4848 -0.542 0.4341 -0.2975 -0.8503 0.2991 -0.1192 -0.9467 
0.3451 -0.1112 -0.9319 0.5056 -0.289 -0.8129 0.2991 -0.1192 -0.9467 
0.2249 -0.0134 -0.9743 0.2553 0.0087 -0.9668 0.3451 -0.1112 -0.9319 
0.2249 -0.0134 -0.9743 0.185 0.0493 -0.9815 0.1993 0.094 -0.9754 
0.2553 0.0087 -0.9668 0.2553 0.0087 -0.9668 0.1993 0.094 -0.9754 
0.2551 0.2 -0.946 0.33 0.0963 -0.939 0.33 0.0963 -0.939 
0.2551 0.2 -0.946 0.3672 0.3895 -0.8446 0.471 0.2605 -0.8428 
0.471 0.2605 -0.8428 0.3672 0.3895 -0.8446 0.5006 0.612 -0.6122 
0.6401 0.4631 -0.613 0.5961 0.0941 -0.7973 0.471 0.2605 -0.8428 
0.6401 0.4631 -0.613 0.7749 0.2655 -0.5737 0.7345 -0.1024 -0.6708 
0.5961 0.0941 -0.7973 0.7749 0.2655 -0.5737 0.8789 0.0409 -0.4751 
0.8626 -0.2816 -0.4201 0.7345 -0.1024 -0.6708 0.8789 0.0409 -0.4751 
0.9243 -0.1498 -0.3511 0.7782 -0.3988 -0.4851 0.6093 -0.2234 -0.7608 
0.7345 -0.1024 -0.6708 0.8626 -0.2816 -0.4201 0.6864 -0.4848 -0.542 
0.5056 -0.289 -0.8129 0.6093 -0.2234 -0.7608 0.7782 -0.3988 -0.4851 
-0.4512 0.8616 -0.2325 -0.4709 0.8822 0 -0.6137 0.7895 0 
-0.5831 0.7835 -0.2145 -0.4709 0.8822 0 -0.4512 0.8616 0.2325 
-0.5831 0.7835 0.2145 -0.6137 0.7895 0 -0.5831 0.7835 -0.2145 
-0.6137 0.7895 0 -0.5496 0.8354 0 -0.5264 0.8272 -0.1963 
-0.6137 0.7895 0 -0.5831 0.7835 0.2145 -0.5264 0.8272 0.1963 
-0.5496 0.8354 0 0 0.5984 -0.8012 0 0.9633 -0.2685 
-0.4512 0.8616 -0.2325 -0.3236 0.7297 -0.6023 0 0.9633 -0.2685 
0 1 0 -0.4709 0.8822 0 -0.4512 0.8616 -0.2325 
0 1 0 0 0.9633 0.2685 -0.4512 0.8616 0.2325 
-0.4709 0.8822 0 0 0.9633 0.2685 0 0.5984 0.8012 
-0.3236 0.7297 0.6023 -0.4512 0.8616 0.2325 -0.4512 0.8616 0.2325 
-0.3236 0.7297 0.6023 -0.4497 0.7253 0.5211 -0.5831 0.7835 0.2145 
-0.5831 0.7835 0.2145 -0.4497 0.7253 0.5211 -0.4032 0.7936 0.4555 
-0.5264 0.8272 0.1963 -0.5264 0.8272 0.1963 -0.4032 0.7936 0.4555 
-0.2927 0.8793 0.3757 -0.3289 0.9253 0.1889 -0.5496 0.8354 0 
-0.5264 0.8272 0.1963 -0.3289 0.9253 0.1889 -0.3436 0.9391 0 
-0.5264 0.8272 -0.1963 -0.5496 0.8354 0 -0.3436 0.9391 0 
-0.3289 0.9253 -0.1889 -0.4032 0.7936 -0.4555 -0.5264 0.8272 -0.1963 
-0.3289 0.9253 -0.1889 -0.2927 0.8793 -0.3757 -0.4497 0.7253 -0.5211 
-0.5831 0.7835 -0.2145 -0.5264 0.8272 -0.1963 -0.4032 0.7936 -0.4555 
-0.3236 0.7297 -0.6023 -0.4512 0.8616 -0.2325 -0.5831 0.7835 -0.2145 
-0.4497 0.7253 -0.5211 -0.133 0.4698 0.8727 0.0224 0.271 0.9623 
0.0157 0.4089 0.9124 -0.2084 0.5694 0.7952 0.0224 0.271 0.9623 
0.1316 0.1641 0.9776 0.1655 0.292 0.942 0.0157 0.4089 0.9124 
-0.2084 0.5694 0.7952 0.0157 0.4089 0.9124 0.075 0.6092 0.7894 
-0.1601 0.7124 0.6832 0.0157 0.4089 0.9124 0.1655 0.292 0.942 
0.2483 0.4986 0.8304 0.075 0.6092 0.7894 0 0.5984 0.8012 
-0.018 0.3339 0.9424 -0.133 0.4698 0.8727 -0.3236 0.7297 0.6023 
-0.018 0.3339 0.9424 0.0841 0.1735 0.9812 0.0224 0.271 0.9623 
-0.133 0.4698 0.8727 0.0841 0.1735 0.9812 0.1477 0.0908 0.9848 
0.1316 0.1641 0.9776 0.0224 0.271 0.9623 0.1477 0.0908 0.9848 
0.185 0.0493 0.9815 0.1993 0.094 0.9754 0.1316 0.1641 0.9776 
0.1316 0.1641 0.9776 0.1993 0.094 0.9754 0.2551 0.2 0.946 
0.1655 0.292 0.942 0.1655 0.292 0.942 0.2551 0.2 0.946 
0.3672 0.3895 0.8446 0.2483 0.4986 0.8304 0.2483 0.4986 0.8304 
0.3672 0.3895 0.8446 0.5006 0.612 0.6122 0.3468 0.7262 0.5936 
0.075 0.6092 0.7894 0.2483 0.4986 0.8304 0.3468 0.7262 0.5936 
0.1545 0.8185 0.5533 -0.1601 0.7124 0.6832 0.075 0.6092 0.7894 
0.1545 0.8185 0.5533 -0.0748 0.8748 0.4787 -0.4032 0.7936 0.4555 
-0.1601 0.7124 0.6832 -0.0748 0.8748 0.4787 -0.2927 0.8793 0.3757 
-0.4497 0.7253 0.5211 -0.2084 0.5694 0.7952 -0.1601 0.7124 0.6832 
-0.4032 0.7936 0.4555 -0.3236 0.7297 0.6023 -0.133 0.4698 0.8727 
-0.2084 0.5694 0.7952 -0.4497 0.7253 0.5211 0.5117 -0.8355 -0.2002 
0.6862 -0.7249 -0.0594 0.7208 -0.6931 0 0.5586 -0.8294 0 
0.6862 -0.7249 -0.0594 0.7051 -0.708 0.0401 0.7229 -0.6909 0 
0.7208 -0.6931 0 0.5586 -0.8294 0 0.7208 -0.6931 0 
0.6862 -0.7249 0.0594 0.5117 -0.8355 0.2002 0.7208 -0.6931 0 
0.7229 -0.6909 0 0.7051 -0.708 -0.0401 0.6862 -0.7249 0.0594 
0 -0.8411 -0.5408 0.4027 -0.8009 -0.4431 0.5117 -0.8355 -0.2002 
0 -0.9623 -0.2718 0.4027 -0.8009 -0.4431 0.5953 -0.762 -0.2546 
0.6862 -0.7249 -0.0594 0.5117 -0.8355 -0.2002 0.5953 -0.762 -0.2546 
0.6588 -0.7465 -0.0929 0.7051 -0.708 0.0401 0.6862 -0.7249 -0.0594 
0.6588 -0.7465 -0.0929 0.6586 -0.7525 -0.0059 0.6678 -0.7407 0.0736 
0.7051 -0.708 0.0401 0.7051 -0.708 0.0401 0.6678 -0.7407 0.0736 
0.6717 -0.7407 0 0.7229 -0.6909 0 0.7229 -0.6909 0 
0.6717 -0.7407 0 0.6678 -0.7407 -0.0736 0.7051 -0.708 -0.0401 
0.7051 -0.708 -0.0401 0.6678 -0.7407 -0.0736 0.6586 -0.7525 0.0059 
0.6588 -0.7465 0.0929 0.6862 -0.7249 0.0594 0.7051 -0.708 -0.0401 
0.6588 -0.7465 0.0929 0.5953 -0.762 0.2546 0.5117 -0.8355 0.2002 
0.6862 -0.7249 0.0594 0.5953 -0.762 0.2546 0.4027 -0.8009 0.4431 
0 -0.9623 0.2718 0.5117 -0.8355 0.2002 0.4027 -0.8009 0.4431 
0 -0.8411 0.5408 0 -1 0 0.5586 -0.8294 0 
0.5117 -0.8355 0.2002 0 -0.9623 0.2718 0 -0.9623 -0.2718 
0.5117 -0.8355 -0.2002 0.5586 -0.8294 0 0 -1 0 
0.3544 -0.2483 -0.9015 0.2497 -0.1943 -0.9486 0.2009 -0.0454 -0.9785 
0.2637 -0.0875 -0.9606 0.2497 -0.1943 -0.9486 0.1345 -0.1642 -0.9772 
0.1086 -0.0086 -0.994 0.2009 -0.0454 -0.9785 0.2637 -0.0875 -0.9606 
0.2009 -0.0454 -0.9785 0.1492 0.0758 -0.9859 0.2 0.0195 -0.9796 
0.2009 -0.0454 -0.9785 0.1086 -0.0086 -0.994 0.0595 0.1525 -0.9865 
0.1492 0.0758 -0.9859 0.6109 -0.5371 -0.5817 0.444 -0.4379 -0.7817 
0.3544 -0.2483 -0.9015 0.4341 -0.2975 -0.8503 0.444 -0.4379 -0.7817 
0.2988 -0.3666 -0.8811 0.2497 -0.1943 -0.9486 0.3544 -0.2483 -0.9015 
0.2988 -0.3666 -0.8811 0.1562 -0.331 -0.9306 0.1345 -0.1642 -0.9772 
0.2497 -0.1943 -0.9486 0.1562 -0.331 -0.9306 0 -0.3202 -0.9473 
0 -0.1538 -0.9881 0.1345 -0.1642 -0.9772 0.1345 -0.1642 -0.9772 
0 -0.1538 -0.9881 0 0.0078 -0.9999 0.1086 -0.0086 -0.994 
0.1086 -0.0086 -0.994 0 0.0078 -0.9999 0 0.2 -0.9798 
0.0595 0.1525 -0.9865 0.0595 0.1525 -0.9865 0 0.2 -0.9798 
0 0.5984 -0.8012 -0.018 0.3339 -0.9424 0.1492 0.0758 -0.9859 
0.0595 0.1525 -0.9865 -0.018 0.3339 -0.9424 0.0841 0.1735 -0.9812 
0.2 0.0195 -0.9796 0.1492 0.0758 -0.9859 0.0841 0.1735 -0.9812 
0.1477 0.0908 -0.9848 0.2249 -0.0134 -0.9743 0.2 0.0195 -0.9796 
0.1477 0.0908 -0.9848 0.185 0.0493 -0.9815 0.2991 -0.1192 -0.9467 
0.2637 -0.0875 -0.9606 0.2 0.0195 -0.9796 0.2249 -0.0134 -0.9743 
0.4341 -0.2975 -0.8503 0.3544 -0.2483 -0.9015 0.2637 -0.0875 -0.9606 
0.2991 -0.1192 -0.9467 0.1345 -0.1642 0.9772 0.2497 -0.1943 0.9486 
0.2009 -0.0454 0.9785 0.1086 -0.0086 0.994 0.2497 -0.1943 0.9486 
0.3544 -0.2483 0.9015 0.2637 -0.0875 0.9606 0.2009 -0.0454 0.9785 
0.1086 -0.0086 0.994 0.2009 -0.0454 0.9785 0.1492 0.0758 0.9859 