# vtk DataFile Version 4.2
vtk output
ASCII
DATASET POLYDATA
FIELD FieldData 1
MaterialNames 1 1 string
None

POINTS 1792 float
0.038622 -0.327471 -0.107593 0.054997 -0.27456 -0.15598 0.108604 -0.260141 -0.144976 
0.07712 -0.311576 -0.101574 0.054997 -0.27456 -0.15598 0.072016 -0.200859 -0.204574 
0.143063 -0.188993 -0.189103 0.108604 -0.260141 -0.144976 0.07712 -0.311576 -0.101574 
0.108604 -0.260141 -0.144976 0.158114 -0.241559 -0.125242 0.113522 -0.289983 -0.089665 
0.108604 -0.260141 -0.144976 0.143063 -0.188993 -0.189103 0.210737 -0.171836 -0.162883 
0.158114 -0.241559 -0.125242 -0 -0.368279 -0.065489 0 -0.334027 -0.109414 
0.038622 -0.327471 -0.107593 0.025799 -0.361119 -0.06483 0 -0.334027 -0.109414 
-0 -0.280139 -0.15942 0.054997 -0.27456 -0.15598 0.038622 -0.327471 -0.107593 
-0 -0.280139 -0.15942 -0 -0.205079 -0.209709 0.072016 -0.200859 -0.204574 
0.054997 -0.27456 -0.15598 -0 -0.205079 -0.209709 -0 -0.109978 -0.252405 
0.08553 -0.107578 -0.245958 0.072016 -0.200859 -0.204574 0.072016 -0.200859 -0.204574 
0.08553 -0.107578 -0.245958 0.170781 -0.099326 -0.227822 0.143063 -0.188993 -0.189103 
0.143063 -0.188993 -0.189103 0.170781 -0.099326 -0.227822 0.255709 -0.083122 -0.199272 
0.210737 -0.171836 -0.162883 0.210737 -0.171836 -0.162883 0.255709 -0.083122 -0.199272 
0.347317 -0.051001 -0.15518 0.265282 -0.155793 -0.122307 0.158114 -0.241559 -0.125242 
0.210737 -0.171836 -0.162883 0.265282 -0.155793 -0.122307 0.195561 -0.223561 -0.093692 
0.113522 -0.289983 -0.089665 0.158114 -0.241559 -0.125242 0.195561 -0.223561 -0.093692 
0.140827 -0.271317 -0.069286 0.082715 -0.319767 -0.057931 0.113522 -0.289983 -0.089665 
0.140827 -0.271317 -0.069286 0.107013 -0.298352 -0.052512 0.053311 -0.343867 -0.062543 
0.07712 -0.311576 -0.101574 0.113522 -0.289983 -0.089665 0.082715 -0.319767 -0.057931 
0.025799 -0.361119 -0.06483 0.038622 -0.327471 -0.107593 0.07712 -0.311576 -0.101574 
0.053311 -0.343867 -0.062543 0.444762 0.019356 0.076776 0.442164 0.013329 0 
0.499611 0.099549 0 0.502895 0.107075 0.071911 0.442164 0.013329 0 
0.444762 0.019356 -0.076776 0.502895 0.107075 -0.071911 0.499611 0.099549 0 
0.502895 0.107075 0.071911 0.499611 0.099549 0 0.543218 0.182929 -0 
0.542709 0.188169 0.064834 0.499611 0.099549 0 0.502895 0.107075 -0.071911 
0.542709 0.188169 -0.064834 0.543218 0.182929 -0 0.347317 -0.051001 0.15518 
0.371409 -0.069317 0.075974 0.444762 0.019356 0.076776 0.437763 0.049787 0.143962 
0.371409 -0.069317 0.075974 0.371915 -0.0703 0 0.442164 0.013329 0 
0.444762 0.019356 0.076776 0.371915 -0.0703 0 0.371409 -0.069317 -0.075974 
0.444762 0.019356 -0.076776 0.442164 0.013329 0 0.371409 -0.069317 -0.075974 
0.347317 -0.051001 -0.15518 0.437763 0.049787 -0.143962 0.444762 0.019356 -0.076776 
0.444762 0.019356 -0.076776 0.437763 0.049787 -0.143962 0.497054 0.135454 -0.133464 
0.502895 0.107075 -0.071911 0.502895 0.107075 -0.071911 0.497054 0.135454 -0.133464 
0.535509 0.209431 -0.118834 0.542709 0.188169 -0.064834 0.542709 0.188169 -0.064834 
0.535509 0.209431 -0.118834 0.554252 0.259914 -0.102961 0.565075 0.261936 -0.060855 
0.543218 0.182929 -0 0.542709 0.188169 -0.064834 0.565075 0.261936 -0.060855 
0.5707 0.263062 -0 0.542709 0.188169 0.064834 0.543218 0.182929 -0 
0.5707 0.263062 -0 0.565075 0.261936 0.060855 0.535509 0.209431 0.118834 
0.542709 0.188169 0.064834 0.565075 0.261936 0.060855 0.554252 0.259914 0.102961 
0.497054 0.135454 0.133464 0.502895 0.107075 0.071911 0.542709 0.188169 0.064834 
0.535509 0.209431 0.118834 0.437763 0.049787 0.143962 0.444762 0.019356 0.076776 
0.502895 0.107075 0.071911 0.497054 0.135454 0.133464 0.210737 -0.171836 0.162883 
0.143063 -0.188993 0.189103 0.108604 -0.260141 0.144976 0.158114 -0.241559 0.125242 
0.143063 -0.188993 0.189103 0.072016 -0.200859 0.204574 0.054997 -0.274559 0.15598 
0.108604 -0.260141 0.144976 0.158114 -0.241559 0.125242 0.108604 -0.260141 0.144976 
0.07712 -0.311576 0.101574 0.113522 -0.289983 0.089665 0.108604 -0.260141 0.144976 
0.054997 -0.274559 0.15598 0.038622 -0.327471 0.107593 0.07712 -0.311576 0.101574 
0.347317 -0.051001 0.15518 0.255709 -0.083122 0.199272 0.210737 -0.171836 0.162883 
0.265282 -0.155793 0.122307 0.255709 -0.083122 0.199272 0.170781 -0.099326 0.227822 
0.143063 -0.188993 0.189103 0.210737 -0.171836 0.162883 0.170781 -0.099326 0.227822 
0.08553 -0.107578 0.245958 0.072016 -0.200859 0.204574 0.143063 -0.188993 0.189103 
0.08553 -0.107578 0.245958 -0 -0.109979 0.252405 -0 -0.205079 0.209709 
0.072016 -0.200859 0.204574 0.072016 -0.200859 0.204574 -0 -0.205079 0.209709 
-0 -0.280139 0.159421 0.054997 -0.274559 0.15598 0.054997 -0.274559 0.15598 
-0 -0.280139 0.159421 -0 -0.334027 0.109414 0.038622 -0.327471 0.107593 
0.038622 -0.327471 0.107593 -0 -0.334027 0.109414 -0 -0.368279 0.065489 
0.025799 -0.361119 0.06483 0.07712 -0.311576 0.101574 0.038622 -0.327471 0.107593 
0.025799 -0.361119 0.06483 0.053311 -0.343867 0.062543 0.113522 -0.289983 0.089665 
0.07712 -0.311576 0.101574 0.053311 -0.343867 0.062543 0.082715 -0.319767 0.057931 
0.140827 -0.271317 0.069286 0.113522 -0.289983 0.089665 0.082715 -0.319767 0.057931 
0.107013 -0.298352 0.052512 0.195561 -0.223561 0.093692 0.158114 -0.241559 0.125242 
0.113522 -0.289983 0.089665 0.140827 -0.271317 0.069286 0.265282 -0.155793 0.122307 
0.210737 -0.171836 0.162883 0.158114 -0.241559 0.125242 0.195561 -0.223561 0.093692 
0.15137 -0.261239 -0.037568 0.214726 -0.212378 -0.049915 0.217905 -0.206052 0 
0.151925 -0.255681 0 0.214726 -0.212378 -0.049915 0.290774 -0.148741 -0.064439 
0.293529 -0.143884 0 0.217905 -0.206052 0 0.151925 -0.255681 0 
0.217905 -0.206052 0 0.214726 -0.212378 0.049915 0.15137 -0.261239 0.037568 
0.217905 -0.206052 0 0.293529 -0.143884 0 0.290774 -0.148741 0.064439 
0.214726 -0.212378 0.049915 0.107013 -0.298352 -0.052512 0.140827 -0.271317 -0.069286 
0.15137 -0.261239 -0.037568 0.102575 -0.299136 -0.029858 0.140827 -0.271317 -0.069286 
0.195561 -0.223561 -0.093692 0.214726 -0.212378 -0.049915 0.15137 -0.261239 -0.037568 
0.195561 -0.223561 -0.093692 0.265282 -0.155793 -0.122307 0.290774 -0.148741 -0.064439 
0.214726 -0.212378 -0.049915 0.265282 -0.155793 -0.122307 0.347317 -0.051001 -0.15518 
0.371409 -0.069317 -0.075974 0.290774 -0.148741 -0.064439 0.290774 -0.148741 -0.064439 
0.371409 -0.069317 -0.075974 0.371915 -0.0703 0 0.293529 -0.143884 0 
0.293529 -0.143884 0 0.371915 -0.0703 0 0.371409 -0.069317 0.075974 
0.290774 -0.148741 0.064439 0.290774 -0.148741 0.064439 0.371409 -0.069317 0.075974 
0.347317 -0.051001 0.15518 0.265282 -0.155793 0.122307 0.214726 -0.212378 0.049915 
0.290774 -0.148741 0.064439 0.265282 -0.155793 0.122307 0.195561 -0.223561 0.093692 
0.15137 -0.261239 0.037568 0.214726 -0.212378 0.049915 0.195561 -0.223561 0.093692 
0.140827 -0.271317 0.069286 0.102575 -0.299136 0.029858 0.15137 -0.261239 0.037568 
0.140827 -0.271317 0.069286 0.107013 -0.298352 0.052512 0.099525 -0.296852 0 
0.151925 -0.255681 0 0.15137 -0.261239 0.037568 0.102575 -0.299136 0.029858 
0.102575 -0.299136 -0.029858 0.15137 -0.261239 -0.037568 0.151925 -0.255681 0 
0.099525 -0.296852 0 0.379281 0.261949 0.223262 0.407455 0.189765 0.211962 
0.460674 0.253135 0.197136 0.425994 0.319439 0.208012 0.407455 0.189765 0.211962 
0.427089 0.113392 0.188336 0.483996 0.187603 0.174529 0.460674 0.253135 0.197136 
0.425994 0.319439 0.208012 0.460674 0.253135 0.197136 0.501756 0.315913 0.173429 
0.464747 0.378037 0.182176 0.460674 0.253135 0.197136 0.483996 0.187603 0.174529 
0.524056 0.255534 0.153908 0.501756 0.315913 0.173429 0.308141 0.275833 0.236752 
0.324528 0.220667 0.235112 0.379281 0.261949 0.223262 0.338318 0.319026 0.228589 
0.324528 0.220667 0.235112 0.342553 0.14058 0.226091 0.407455 0.189765 0.211962 
0.379281 0.261949 0.223262 0.342553 0.14058 0.226091 0.354574 0.049769 0.204136 
0.427089 0.113392 0.188336 0.407455 0.189765 0.211962 0.354574 0.049769 0.204136 
0.347317 -0.051001 0.15518 0.437763 0.049787 0.143962 0.427089 0.113392 0.188336 
0.427089 0.113392 0.188336 0.437763 0.049787 0.143962 0.497054 0.135454 0.133464 
0.483996 0.187603 0.174529 0.483996 0.187603 0.174529 0.497054 0.135454 0.133464 
0.535509 0.209431 0.118834 0.524056 0.255534 0.153908 0.524056 0.255534 0.153908 
0.535509 0.209431 0.118834 0.554252 0.259914 0.102961 0.550487 0.305927 0.119606 
0.501756 0.315913 0.173429 0.524056 0.255534 0.153908 0.550487 0.305927 0.119606 
0.531137 0.366562 0.133294 0.464747 0.378037 0.182176 0.501756 0.315913 0.173429 
0.531137 0.366562 0.133294 0.493323 0.426287 0.139039 0.412676 0.43277 0.185114 
0.464747 0.378037 0.182176 0.493323 0.426287 0.139039 0.43991 0.477847 0.140027 
0.376891 0.376519 0.212792 0.425994 0.319439 0.208012 0.464747 0.378037 0.182176 
0.412676 0.43277 0.185114 0.338318 0.319026 0.228589 0.379281 0.261949 0.223262 
0.425994 0.319439 0.208012 0.376891 0.376519 0.212792 0.567745 0.330991 -0.065879 
0.549111 0.396483 -0.07256 0.555266 0.40592 -0 0.574246 0.33789 -0 
0.549111 0.396483 -0.07256 0.510881 0.45612 -0.075425 0.516594 0.465891 -0 
0.555266 0.40592 -0 0.574246 0.33789 -0 0.555266 0.40592 -0 
0.549111 0.396483 0.07256 0.567745 0.330991 0.065879 0.555266 0.40592 -0 
0.516594 0.465891 -0 0.510881 0.45612 0.075425 0.549111 0.396483 0.07256 
0.554252 0.259914 -0.102961 0.550487 0.305927 -0.119606 0.567745 0.330991 -0.065879 
0.565075 0.261936 -0.060855 0.550487 0.305927 -0.119606 0.531137 0.366562 -0.133294 
0.549111 0.396483 -0.07256 0.567745 0.330991 -0.065879 0.531137 0.366562 -0.133294 
0.493323 0.426287 -0.139039 0.510881 0.45612 -0.075425 0.549111 0.396483 -0.07256 
0.493323 0.426287 -0.139039 0.43991 0.477847 -0.140027 0.457065 0.506005 -0.075615 
0.510881 0.45612 -0.075425 0.510881 0.45612 -0.075425 0.457065 0.506005 -0.075615 
0.462562 0.51521 -0 0.516594 0.465891 -0 0.516594 0.465891 -0 
0.462562 0.51521 -0 0.457065 0.506005 0.075615 0.510881 0.45612 0.075425 
0.510881 0.45612 0.075425 0.457065 0.506005 0.075615 0.43991 0.477847 0.140027 
0.493323 0.426287 0.139039 0.549111 0.396483 0.07256 0.510881 0.45612 0.075425 
[...]
CELL_DATA 448
FIELD FieldData 2
MaterialIds 1 448 int
0 0 0 0 0 0 0 0 0 
0 0 0 0 0 0 0 0 0 
0 0 0 0 0 0 0 0 0 
0 0 0 0 0 0 0 0 0 
0 0 0 0 0 0 0 0 0 
0 0 0 0 0 0 0 0 0 
0 0 0 0 0 0 0 0 0 
0 0 0 0 0 0 0 0 0 
0 0 0 0 0 0 0 0 0 
0 0 0 0 0 0 0 0 0 
0 0 0 0 0 0 0 0 0 
0 0 0 0 0 0 0 0 0 
0 0 0 0 0 0 0 0 0 
0 0 0 0 0 0 0 0 0 
0 0 0 0 0 0 0 0 0 
0 0 0 0 0 0 0 0 0 
0 0 0 0 0 0 0 0 0 
0 0 0 0 0 0 0 0 0 
0 0 0 0 0 0 0 0 0 
0 0 0 0 0 0 0 0 0 
0 0 0 0 0 0 0 0 0 
0 0 0 0 0 0 0 0 0 
0 0 0 0 0 0 0 0 0 
0 0 0 0 0 0 0 0 0 
0 0 0 0 0 0 0 0 0 
0 0 0 0 0 0 0 0 0 
0 0 0 0 0 0 0 0 0 
0 0 0 0 0 0 0 0 0 
0 0 0 0 0 0 0 0 0 
0 0 0 0 0 0 0 0 0 
0 0 0 0 0 0 0 0 0 
0 0 0 0 0 0 0 0 0 
0 0 0 0 0 0 0 0 0 
0 0 0 0 0 0 0 0 0 
0 0 0 0 0 0 0 0 0 
0 0 0 0 0 0 0 0 0 
0 0 0 0 0 0 0 0 0 
0 0 0 0 0 0 0 0 0 
0 0 0 0 0 0 0 0 0 
0 0 0 0 0 0 0 0 0 
0 0 0 0 0 0 0 0 0 
0 0 0 0 0 0 0 0 0 
0 0 0 0 0 0 0 0 0 
0 0 0 0 0 0 0 0 0 
0 0 0 0 0 0 0 0 0 
0 0 0 0 0 0 0 0 0 
0 0 0 0 0 0 0 0 0 
0 0 0 0 0 0 0 0 0 
0 0 0 0 0 0 0 0 0 
0 0 0 0 0 0 0 
METADATA
INFORMATION 0

GroupIds 1 448 float
0 0 0 0 0 0 0 0 0 
0 0 0 0 0 0 0 0 0 
0 0 0 0 0 0 0 0 0 
0 0 0 0 0 0 0 0 0 
0 0 0 0 0 0 0 0 0 
0 0 0 0 0 0 0 0 0 
0 0 0 0 0 0 0 0 0 
0 0 0 0 0 0 0 0 0 
0 0 0 0 0 0 0 0 0 
0 0 0 0 0 0 0 0 0 
0 0 0 0 0 0 0 0 0 
0 0 0 0 0 0 0 0 0 
0 0 0 0 0 0 0 0 0 
0 0 0 0 0 0 0 0 0 
0 0 0 0 0 0 0 0 0 
0 0 0 0 0 0 0 0 0 
0 0 0 0 0 0 0 0 0 
0 0 0 0 0 0 0 0 0 
0 0 0 0 0 0 0 0 0 
0 0 0 0 0 0 0 0 0 
0 0 0 0 0 0 0 0 0 
0 0 0 0 0 0 0 0 0 
0 0 0 0 0 0 0 0 0 
0 0 0 0 0 0 0 0 0 
0 0 0 0 0 0 0 0 0 
0 0 0 0 0 0 0 0 0 
0 0 0 0 0 0 0 0 0 
0 0 0 0 0 0 0 0 0 
0 0 0 0 0 0 0 0 0 
0 0 0 0 0 0 0 0 0 
0 0 0 0 0 0 0 0 0 
0 0 0 0 0 0 0 0 0 
0 0 0 0 0 0 0 0 0 
0 0 0 0 0 0 0 0 0 
0 0 0 0 0 0 0 0 0 
0 0 0 0 0 0 0 0 0 
0 0 0 0 0 0 0 0 0 
0 0 0 0 0 0 0 0 0 
0 0 0 0 0 0 0 0 0 
0 0 0 0 0 0 0 0 0 
0 0 0 0 0 0 0 0 0 
0 0 0 0 0 0 0 0 0 
0 0 0 0 0 0 0 0 0 
0 0 0 0 0 0 0 0 0 
0 0 0 0 0 0 0 0 0 
0 0 0 0 0 0 0 0 0 
0 0 0 0 0 0 0 0 0 
0 0 0 0 0 0 0 0 0 
0 0 0 0 0 0 0 0 0 
0 0 0 0 0 0 0 
METADATA
INFORMATION 0

POINT_DATA 1792
NORMALS Normals float
0.2844 -0.7511 -0.5957 0.2186 -0.6403 -0.7363 0.4005 -0.6742 -0.6204 
0.4788 -0.7603 -0.4389 0.2186 -0.6403 -0.7363 0.1807 -0.5028 -0.8453 
0.345 -0.543 -0.7656 0.4005 -0.6742 -0.6204 0.4788 -0.7603 -0.4389 
0.4005 -0.6742 -0.6204 0.5384 -0.7188 -0.4397 0.5844 -0.7694 -0.2578 
0.4005 -0.6742 -0.6204 0.345 -0.543 -0.7656 0.4964 -0.6103 -0.6172 
0.5384 -0.7188 -0.4397 0 -0.8649 -0.5018 0 -0.7499 -0.6616 
0.2844 -0.7511 -0.5957 0.389 -0.825 -0.4098 0 -0.7499 -0.6616 
0 -0.6284 -0.7778 0.2186 -0.6403 -0.7363 0.2844 -0.7511 -0.5957 
0 -0.6284 -0.7778 0 -0.4895 -0.872 0.1807 -0.5028 -0.8453 
0.2186 -0.6403 -0.7363 0 -0.4895 -0.872 0 -0.3276 -0.9448 
0.1559 -0.3384 -0.928 0.1807 -0.5028 -0.8453 0.1807 -0.5028 -0.8453 
0.1559 -0.3384 -0.928 0.2986 -0.374 -0.878 0.345 -0.543 -0.7656 
0.345 -0.543 -0.7656 0.2986 -0.374 -0.878 0.444 -0.4451 -0.7776 
0.4964 -0.6103 -0.6172 0.4964 -0.6103 -0.6172 0.444 -0.4451 -0.7776 
0.6111 -0.5432 -0.5757 0.6193 -0.6823 -0.3884 0.5384 -0.7188 -0.4397 
0.4964 -0.6103 -0.6172 0.6193 -0.6823 -0.3884 0.6175 -0.7562 -0.2163 
0.5844 -0.7694 -0.2578 0.5384 -0.7188 -0.4397 0.6175 -0.7562 -0.2163 
0.6252 -0.7765 -0.0788 0.641 -0.7642 -0.0716 0.5844 -0.7694 -0.2578 
0.6252 -0.7765 -0.0788 0.6409 -0.7675 0.0127 0.5771 -0.784 -0.2287 
0.4788 -0.7603 -0.4389 0.5844 -0.7694 -0.2578 0.641 -0.7642 -0.0716 
0.389 -0.825 -0.4098 0.2844 -0.7511 -0.5957 0.4788 -0.7603 -0.4389 
0.5771 -0.784 -0.2287 0.7881 -0.5881 0.1816 0.8001 -0.5999 0 
0.862 -0.5068 0 0.8568 -0.4897 0.1611 0.8001 -0.5999 0 
0.7881 -0.5881 -0.1816 0.8568 -0.4897 -0.1611 0.862 -0.5068 0 
0.8568 -0.4897 0.1611 0.862 -0.5068 0 0.9235 -0.3836 0 
0.9187 -0.3666 0.1467 0.862 -0.5068 0 0.8568 -0.4897 -0.1611 
0.9187 -0.3666 -0.1467 0.9235 -0.3836 0 0.6111 -0.5432 0.5757 
0.7249 -0.6667 0.1733 0.7881 -0.5881 0.1816 0.688 -0.4885 0.5366 
0.7249 -0.6667 0.1733 0.7318 -0.6815 0 0.8001 -0.5999 0 
0.7881 -0.5881 0.1816 0.7318 -0.6815 0 0.7249 -0.6667 -0.1733 
0.7881 -0.5881 -0.1816 0.8001 -0.5999 0 0.7249 -0.6667 -0.1733 
0.6111 -0.5432 -0.5757 0.688 -0.4885 -0.5366 0.7881 -0.5881 -0.1816 
0.7881 -0.5881 -0.1816 0.688 -0.4885 -0.5366 0.7799 -0.4017 -0.4799 
0.8568 -0.4897 -0.1611 0.8568 -0.4897 -0.1611 0.7799 -0.4017 -0.4799 
0.8638 -0.2847 -0.4157 0.9187 -0.3666 -0.1467 0.9187 -0.3666 -0.1467 
0.8638 -0.2847 -0.4157 0.9249 -0.1532 -0.3478 0.9728 -0.1673 -0.1598 
0.9235 -0.3836 0 0.9187 -0.3666 -0.1467 0.9728 -0.1673 -0.1598 
0.9845 -0.1754 0 0.9187 -0.3666 0.1467 0.9235 -0.3836 0 
0.9845 -0.1754 0 0.9728 -0.1673 0.1598 0.8638 -0.2847 0.4157 
0.9187 -0.3666 0.1467 0.9728 -0.1673 0.1598 0.9249 -0.1532 0.3478 
0.7799 -0.4017 0.4799 0.8568 -0.4897 0.1611 0.9187 -0.3666 0.1467 
0.8638 -0.2847 0.4157 0.688 -0.4885 0.5366 0.7881 -0.5881 0.1816 
0.8568 -0.4897 0.1611 0.7799 -0.4017 0.4799 0.4964 -0.6103 0.6172 
0.345 -0.543 0.7656 0.4005 -0.6742 0.6204 0.5384 -0.7188 0.4397 
0.345 -0.543 0.7656 0.1807 -0.5028 0.8453 0.2186 -0.6403 0.7363 
0.4005 -0.6742 0.6204 0.5384 -0.7188 0.4397 0.4005 -0.6742 0.6204 
0.4788 -0.7603 0.4389 0.5844 -0.7694 0.2578 0.4005 -0.6742 0.6204 
0.2186 -0.6403 0.7363 0.2844 -0.7511 0.5957 0.4788 -0.7603 0.4389 
0.6111 -0.5432 0.5757 0.444 -0.4451 0.7776 0.4964 -0.6103 0.6172 
0.6193 -0.6823 0.3884 0.444 -0.4451 0.7776 0.2986 -0.374 0.878 
0.345 -0.543 0.7656 0.4964 -0.6103 0.6172 0.2986 -0.374 0.878 
0.1559 -0.3384 0.928 0.1807 -0.5028 0.8453 0.345 -0.543 0.7656 
0.1559 -0.3384 0.928 0 -0.3276 0.9448 0 -0.4895 0.872 
0.1807 -0.5028 0.8453 0.1807 -0.5028 0.8453 0 -0.4895 0.872 
0 -0.6284 0.7778 0.2186 -0.6403 0.7363 0.2186 -0.6403 0.7363 
0 -0.6284 0.7778 0 -0.7499 0.6616 0.2844 -0.7511 0.5957 
0.2844 -0.7511 0.5957 0 -0.7499 0.6616 0 -0.8649 0.5018 
0.389 -0.825 0.4098 0.4788 -0.7603 0.4389 0.2844 -0.7511 0.5957 
0.389 -0.825 0.4098 0.5771 -0.784 0.2287 0.5844 -0.7694 0.2578 
0.4788 -0.7603 0.4389 0.5771 -0.784 0.2287 0.641 -0.7642 0.0716 
0.6252 -0.7765 0.0788 0.5844 -0.7694 0.2578 0.641 -0.7642 0.0716 
0.6409 -0.7675 -0.0127 0.6175 -0.7562 0.2163 0.5384 -0.7188 0.4397 
0.5844 -0.7694 0.2578 0.6252 -0.7765 0.0788 0.6193 -0.6823 0.3884 
0.4964 -0.6103 0.6172 0.5384 -0.7188 0.4397 0.6175 -0.7562 0.2163 
0.6212 -0.7818 0.0533 0.6321 -0.7746 -0.0187 0.6271 -0.7789 0 
0.6156 -0.788 0 0.6321 -0.7746 -0.0187 0.6718 -0.7326 -0.1092 
0.6689 -0.7433 0 0.6271 -0.7789 0 0.6156 -0.788 0 
0.6271 -0.7789 0 0.6321 -0.7746 0.0187 0.6212 -0.7818 -0.0533 
0.6271 -0.7789 0 0.6689 -0.7433 0 0.6718 -0.7326 0.1092 
0.6321 -0.7746 0.0187 0.6409 -0.7675 0.0127 0.6252 -0.7765 -0.0788 
0.6212 -0.7818 0.0533 0.649 -0.7551 0.0928 0.6252 -0.7765 -0.0788 
0.6175 -0.7562 -0.2163 0.6321 -0.7746 -0.0187 0.6212 -0.7818 0.0533 
0.6175 -0.7562 -0.2163 0.6193 -0.6823 -0.3884 0.6718 -0.7326 -0.1092 
0.6321 -0.7746 -0.0187 0.6193 -0.6823 -0.3884 0.6111 -0.5432 -0.5757 
0.7249 -0.6667 -0.1733 0.6718 -0.7326 -0.1092 0.6718 -0.7326 -0.1092 
0.7249 -0.6667 -0.1733 0.7318 -0.6815 0 0.6689 -0.7433 0 
0.6689 -0.7433 0 0.7318 -0.6815 0 0.7249 -0.6667 0.1733 
0.6718 -0.7326 0.1092 0.6718 -0.7326 0.1092 0.7249 -0.6667 0.1733 
0.6111 -0.5432 0.5757 0.6193 -0.6823 0.3884 0.6321 -0.7746 0.0187 
0.6718 -0.7326 0.1092 0.6193 -0.6823 0.3884 0.6175 -0.7562 0.2163 
0.6212 -0.7818 -0.0533 0.6321 -0.7746 0.0187 0.6175 -0.7562 0.2163 
0.6252 -0.7765 0.0788 0.649 -0.7551 -0.0928 0.6212 -0.7818 -0.0533 
0.6252 -0.7765 0.0788 0.6409 -0.7675 -0.0127 0.6537 -0.7568 0 
0.6156 -0.788 0 0.6212 -0.7818 -0.0533 0.649 -0.7551 -0.0928 
0.649 -0.7551 0.0928 0.6212 -0.7818 0.0533 0.6156 -0.788 0 
0.6537 -0.7568 0 0.249 0.0133 0.9684 0.3417 -0.1083 0.9335 
0.4371 -0.0398 0.8985 0.3233 0.1013 0.9408 0.3417 -0.1083 0.9335 
0.5057 -0.2894 0.8127 0.6092 -0.2235 0.7608 0.4371 -0.0398 0.8985 
0.3233 0.1013 0.9408 0.4371 -0.0398 0.8985 0.5925 0.098 0.7996 
0.4634 0.2677 0.8447 0.4371 -0.0398 0.8985 0.6092 -0.2235 0.7608 
0.7343 -0.1021 0.6711 0.5925 0.098 0.7996 0.1762 0.0567 0.9827 
0.219 -0.0073 0.9757 0.249 0.0133 0.9684 0.1896 0.1007 0.9767 
0.219 -0.0073 0.9757 0.2961 -0.1153 0.9481 0.3417 -0.1083 0.9335 
0.249 0.0133 0.9684 0.2961 -0.1153 0.9481 0.4343 -0.2983 0.8499 
0.5057 -0.2894 0.8127 0.3417 -0.1083 0.9335 0.4343 -0.2983 0.8499 
0.6111 -0.5432 0.5757 0.688 -0.4885 0.5366 0.5057 -0.2894 0.8127 
0.5057 -0.2894 0.8127 0.688 -0.4885 0.5366 0.7799 -0.4017 0.4799 
0.6092 -0.2235 0.7608 0.6092 -0.2235 0.7608 0.7799 -0.4017 0.4799 
0.8638 -0.2847 0.4157 0.7343 -0.1021 0.6711 0.7343 -0.1021 0.6711 
0.8638 -0.2847 0.4157 0.9249 -0.1532 0.3478 0.8788 0.0415 0.4754 
0.5925 0.098 0.7996 0.7343 -0.1021 0.6711 0.8788 0.0415 0.4754 
0.7711 0.2716 0.5758 0.4634 0.2677 0.8447 0.5925 0.098 0.7996 
0.7711 0.2716 0.5758 0.6309 0.4734 0.6146 0.3551 0.3994 0.8452 
0.4634 0.2677 0.8447 0.6309 0.4734 0.6146 0.4855 0.624 0.6122 
0.2443 0.2073 0.9473 0.3233 0.1013 0.9408 0.4634 0.2677 0.8447 
0.3551 0.3994 0.8452 0.1896 0.1007 0.9767 0.249 0.0133 0.9684 
0.3233 0.1013 0.9408 0.2443 0.2073 0.9473 0.9691 0.1106 -0.2206 
0.8813 0.3838 -0.2757 0.9104 0.4137 0 0.9928 0.12 0 
0.8813 0.3838 -0.2757 0.7356 0.6079 -0.2988 0.7636 0.6456 0 
0.9104 0.4137 0 0.9928 0.12 0 0.9104 0.4137 0 
0.8813 0.3838 0.2757 0.9691 0.1106 0.2206 0.9104 0.4137 0 
0.7636 0.6456 0 0.7356 0.6079 0.2988 0.8813 0.3838 0.2757 
0.9249 -0.1532 -0.3478 0.8788 0.0415 -0.4754 0.9691 0.1106 -0.2206 
0.9728 -0.1673 -0.1598 0.8788 0.0415 -0.4754 0.7711 0.2716 -0.5758 
0.8813 0.3838 -0.2757 0.9691 0.1106 -0.2206 0.7711 0.2716 -0.5758 
0.6309 0.4734 -0.6146 0.7356 0.6079 -0.2988 0.8813 0.3838 -0.2757 
0.6309 0.4734 -0.6146 0.4855 0.624 -0.6122 0.567 0.7676 -0.2987 
0.7356 0.6079 -0.2988 0.7356 0.6079 -0.2988 0.567 0.7676 -0.2987 
0.5888 0.8082 0 0.7636 0.6456 0 0.7636 0.6456 0 
0.5888 0.8082 0 0.567 0.7676 0.2987 0.7356 0.6079 0.2988 
0.7356 0.6079 0.2988 0.567 0.7676 0.2987 0.4855 0.624 0.6122 
0.6309 0.4734 0.6146 0.8813 0.3838 0.2757 0.7356 0.6079 0.2988 
0.6309 0.4734 0.6146 0.7711 0.2716 0.5758 0.9691 0.1106 0.2206 
0.8813 0.3838 0.2757 0.7711 0.2716 0.5758 0.8788 0.0415 0.4754 
0.9728 -0.1673 0.1598 0.9691 0.1106 0.2206 0.8788 0.0415 0.4754 
0.9249 -0.1532 0.3478 0.9845 -0.1754 0 0.9928 0.12 0 
0.9691 0.1106 0.2206 0.9728 -0.1673 0.1598 0.9728 -0.1673 -0.1598 
0.9691 0.1106 -0.2206 0.9928 0.12 0 0.9845 -0.1754 0 
0.3842 0.8777 -0.2862 0.1748 0.9492 -0.2615 0.1838 0.9829 0 
0.3991 0.9169 0 0.1748 0.9492 -0.2615 -0.0694 0.9731 -0.2196 
-0.0745 0.9972 0 0.1838 0.9829 0 0.3991 0.9169 0 
0.1838 0.9829 0 0.1748 0.9492 0.2615 0.3842 0.8777 0.2862 
0.1838 0.9829 0 -0.0745 0.9972 0 -0.0694 0.9731 0.2196 
0.1748 0.9492 0.2615 0.4855 0.624 -0.6122 0.3269 0.7373 -0.5912 
0.3842 0.8777 -0.2862 0.567 0.7676 -0.2987 0.3269 0.7373 -0.5912 
0.1326 0.8257 -0.5482 0.1748 0.9492 -0.2615 0.3842 0.8777 -0.2862 
0.1326 0.8257 -0.5482 -0.0943 0.8766 -0.4719 -0.0694 0.9731 -0.2196 
0.1748 0.9492 -0.2615 -0.0943 0.8766 -0.4719 -0.3067 0.8771 -0.3695 
-0.3425 0.9211 -0.1851 -0.0694 0.9731 -0.2196 -0.0694 0.9731 -0.2196 
-0.3425 0.9211 -0.1851 -0.357 0.9341 0 -0.0745 0.9972 0 
-0.0745 0.9972 0 -0.357 0.9341 0 -0.3425 0.9211 0.1851 
-0.0694 0.9731 0.2196 -0.0694 0.9731 0.2196 -0.3425 0.9211 0.1851 
-0.3067 0.8771 0.3695 -0.0943 0.8766 0.4719 0.1748 0.9492 0.2615 
-0.0694 0.9731 0.2196 -0.0943 0.8766 0.4719 0.1326 0.8257 0.5482 
0.3842 0.8777 0.2862 0.1748 0.9492 0.2615 0.1326 0.8257 0.5482 
0.3269 0.7373 0.5912 0.567 0.7676 0.2987 0.3842 0.8777 0.2862 
0.3269 0.7373 0.5912 0.4855 0.624 0.6122 0.5888 0.8082 0 
0.3991 0.9169 0 0.3842 0.8777 0.2862 0.567 0.7676 0.2987 
0.567 0.7676 -0.2987 0.3842 0.8777 -0.2862 0.3991 0.9169 0 
0.5888 0.8082 0 0.1193 0.1724 -0.9778 0.0093 0.2811 -0.9596 
-0.0009 0.4166 -0.9091 0.1512 0.3004 -0.9417 0.0093 0.2811 -0.9596 
-0.1428 0.4812 -0.8649 -0.2237 0.5734 -0.7882 -0.0009 0.4166 -0.9091 
0.1512 0.3004 -0.9417 -0.0009 0.4166 -0.9091 0.0563 0.6174 -0.7846 
0.2318 0.5091 -0.8289 -0.0009 0.4166 -0.9091 -0.2237 0.5734 -0.7882 
-0.1768 0.7156 -0.6757 0.0563 0.6174 -0.7846 0.1762 0.0567 -0.9827 
0.1388 0.1005 -0.9852 0.1193 0.1724 -0.9778 0.1896 0.1007 -0.9767 
0.1388 0.1005 -0.9852 0.0775 0.1868 -0.9793 0.0093 0.2811 -0.9596 
0.1193 0.1724 -0.9778 0.0775 0.1868 -0.9793 -0.0206 0.3506 -0.9363 
-0.1428 0.4812 -0.8649 0.0093 0.2811 -0.9596 -0.0206 0.3506 -0.9363 
0 0.6135 -0.7896 -0.3275 0.7376 -0.5904 -0.1428 0.4812 -0.8649 
-0.1428 0.4812 -0.8649 -0.3275 0.7376 -0.5904 -0.4603 0.7241 -0.5136 
-0.2237 0.5734 -0.7882 -0.2237 0.5734 -0.7882 -0.4603 0.7241 -0.5136 
-0.4147 0.7917 -0.4485 -0.1768 0.7156 -0.6757 -0.1768 0.7156 -0.6757 
-0.4147 0.7917 -0.4485 -0.3067 0.8771 -0.3695 -0.0943 0.8766 -0.4719 
0.0563 0.6174 -0.7846 -0.1768 0.7156 -0.6757 -0.0943 0.8766 -0.4719 
0.1326 0.8257 -0.5482 0.2318 0.5091 -0.8289 0.0563 0.6174 -0.7846 
0.1326 0.8257 -0.5482 0.3269 0.7373 -0.5912 0.3551 0.3994 -0.8452 
0.2318 0.5091 -0.8289 0.3269 0.7373 -0.5912 0.4855 0.624 -0.6122 
0.2443 0.2073 -0.9473 0.1512 0.3004 -0.9417 0.2318 0.5091 -0.8289 
0.3551 0.3994 -0.8452 0.1896 0.1007 -0.9767 0.1193 0.1724 -0.9778 
0.1512 0.3004 -0.9417 0.2443 0.2073 -0.9473 0.5057 -0.2894 -0.8127 
0.3417 -0.1083 -0.9335 0.4371 -0.0398 -0.8985 0.6092 -0.2235 -0.7608 
0.3417 -0.1083 -0.9335 0.249 0.0133 -0.9684 0.3233 0.1013 -0.9408 
0.4371 -0.0398 -0.8985 0.6092 -0.2235 -0.7608 0.4371 -0.0398 -0.8985 
0.5925 0.098 -0.7996 0.7343 -0.1021 -0.6711 0.4371 -0.0398 -0.8985 
0.3233 0.1013 -0.9408 0.4634 0.2677 -0.8447 0.5925 0.098 -0.7996 
0.6111 -0.5432 -0.5757 0.4343 -0.2983 -0.8499 0.5057 -0.2894 -0.8127 
0.688 -0.4885 -0.5366 0.4343 -0.2983 -0.8499 0.2961 -0.1153 -0.9481 
0.3417 -0.1083 -0.9335 0.5057 -0.2894 -0.8127 0.2961 -0.1153 -0.9481 
0.219 -0.0073 -0.9757 0.249 0.0133 -0.9684 0.3417 -0.1083 -0.9335 
0.219 -0.0073 -0.9757 0.1762 0.0567 -0.9827 0.1896 0.1007 -0.9767 
0.249 0.0133 -0.9684 0.249 0.0133 -0.9684 0.1896 0.1007 -0.9767 
0.2443 0.2073 -0.9473 0.3233 0.1013 -0.9408 0.3233 0.1013 -0.9408 
0.2443 0.2073 -0.9473 0.3551 0.3994 -0.8452 0.4634 0.2677 -0.8447 
0.4634 0.2677 -0.8447 0.3551 0.3994 -0.8452 0.4855 0.624 -0.6122 
0.6309 0.4734 -0.6146 0.5925 0.098 -0.7996 0.4634 0.2677 -0.8447 
0.6309 0.4734 -0.6146 0.7711 0.2716 -0.5758 0.7343 -0.1021 -0.6711 
0.5925 0.098 -0.7996 0.7711 0.2716 -0.5758 0.8788 0.0415 -0.4754 
0.8638 -0.2847 -0.4157 0.7343 -0.1021 -0.6711 0.8788 0.0415 -0.4754 
0.9249 -0.1532 -0.3478 0.7799 -0.4017 -0.4799 0.6092 -0.2235 -0.7608 
0.7343 -0.1021 -0.6711 0.8638 -0.2847 -0.4157 0.688 -0.4885 -0.5366 
0.5057 -0.2894 -0.8127 0.6092 -0.2235 -0.7608 0.7799 -0.4017 -0.4799 
-0.4544 0.8624 -0.2231 -0.4753 0.8798 0 -0.6206 0.7841 0 
-0.5907 0.7791 -0.2098 -0.4753 0.8798 0 -0.4544 0.8624 0.2231 
-0.5907 0.7791 0.2098 -0.6206 0.7841 0 -0.5907 0.7791 -0.2098 
-0.6206 0.7841 0 -0.557 0.8305 0 -0.5345 0.823 -0.1925 
-0.6206 0.7841 0 -0.5907 0.7791 0.2098 -0.5345 0.823 0.1925 
-0.557 0.8305 0 0 0.6135 -0.7896 0 0.967 -0.2546 
-0.4544 0.8624 -0.2231 -0.3275 0.7376 -0.5904 0 0.967 -0.2546 
0 1 0 -0.4753 0.8798 0 -0.4544 0.8624 -0.2231 
0 1 0 0 0.967 0.2546 -0.4544 0.8624 0.2231 
-0.4753 0.8798 0 0 0.967 0.2546 0 0.6135 0.7896 
-0.3275 0.7376 0.5904 -0.4544 0.8624 0.2231 -0.4544 0.8624 0.2231 
-0.3275 0.7376 0.5904 -0.4603 0.7241 0.5136 -0.5907 0.7791 0.2098 
-0.5907 0.7791 0.2098 -0.4603 0.7241 0.5136 -0.4147 0.7917 0.4485 
-0.5345 0.823 0.1925 -0.5345 0.823 0.1925 -0.4147 0.7917 0.4485 
-0.3067 0.8771 0.3695 -0.3425 0.9211 0.1851 -0.557 0.8305 0 
-0.5345 0.823 0.1925 -0.3425 0.9211 0.1851 -0.357 0.9341 0 
-0.5345 0.823 -0.1925 -0.557 0.8305 0 -0.357 0.9341 0 
-0.3425 0.9211 -0.1851 -0.4147 0.7917 -0.4485 -0.5345 0.823 -0.1925 
-0.3425 0.9211 -0.1851 -0.3067 0.8771 -0.3695 -0.4603 0.7241 -0.5136 
-0.5907 0.7791 -0.2098 -0.5345 0.823 -0.1925 -0.4147 0.7917 -0.4485 
-0.3275 0.7376 -0.5904 -0.4544 0.8624 -0.2231 -0.5907 0.7791 -0.2098 
-0.4603 0.7241 -0.5136 -0.1428 0.4812 0.8649 0.0093 0.2811 0.9596 
-0.0009 0.4166 0.9091 -0.2237 0.5734 0.7882 0.0093 0.2811 0.9596 
0.1193 0.1724 0.9778 0.1512 0.3004 0.9417 -0.0009 0.4166 0.9091 
-0.2237 0.5734 0.7882 -0.0009 0.4166 0.9091 0.0563 0.6174 0.7846 
-0.1768 0.7156 0.6757 -0.0009 0.4166 0.9091 0.1512 0.3004 0.9417 
0.2318 0.5091 0.8289 0.0563 0.6174 0.7846 0 0.6135 0.7896 
-0.0206 0.3506 0.9363 -0.1428 0.4812 0.8649 -0.3275 0.7376 0.5904 
-0.0206 0.3506 0.9363 0.0775 0.1868 0.9793 0.0093 0.2811 0.9596 
-0.1428 0.4812 0.8649 0.0775 0.1868 0.9793 0.1388 0.1005 0.9852 
0.1193 0.1724 0.9778 0.0093 0.2811 0.9596 0.1388 0.1005 0.9852 
0.1762 0.0567 0.9827 0.1896 0.1007 0.9767 0.1193 0.1724 0.9778 
0.1193 0.1724 0.9778 0.1896 0.1007 0.9767 0.2443 0.2073 0.9473 
0.1512 0.3004 0.9417 0.1512 0.3004 0.9417 0.2443 0.2073 0.9473 
0.3551 0.3994 0.8452 0.2318 0.5091 0.8289 0.2318 0.5091 0.8289 
0.3551 0.3994 0.8452 0.4855 0.624 0.6122 0.3269 0.7373 0.5912 
0.0563 0.6174 0.7846 0.2318 0.5091 0.8289 0.3269 0.7373 0.5912 
0.1326 0.8257 0.5482 -0.1768 0.7156 0.6757 0.0563 0.6174 0.7846 
0.1326 0.8257 0.5482 -0.0943 0.8766 0.4719 -0.4147 0.7917 0.4485 
-0.1768 0.7156 0.6757 -0.0943 0.8766 0.4719 -0.3067 0.8771 0.3695 
-0.4603 0.7241 0.5136 -0.2237 0.5734 0.7882 -0.1768 0.7156 0.6757 
-0.4147 0.7917 0.4485 -0.3275 0.7376 0.5904 -0.1428 0.4812 0.8649 
-0.2237 0.5734 0.7882 -0.4603 0.7241 0.5136 0.4916 -0.8549 -0.1653 
0.6637 -0.7472 -0.0341 0.6982 -0.7158 0 0.5368 -0.8437 0 
0.6637 -0.7472 -0.0341 0.6846 -0.7263 0.0611 0.7029 -0.7113 0 
0.6982 -0.7158 0 0.5368 -0.8437 0 0.6982 -0.7158 0 
0.6637 -0.7472 0.0341 0.4916 -0.8549 0.1653 0.6982 -0.7158 0 
0.7029 -0.7113 0 0.6846 -0.7263 -0.0611 0.6637 -0.7472 0.0341 
0 -0.8649 -0.5018 0.389 -0.825 -0.4098 0.4916 -0.8549 -0.1653 
0 -0.9731 -0.2304 0.389 -0.825 -0.4098 0.5771 -0.784 -0.2287 
0.6637 -0.7472 -0.0341 0.4916 -0.8549 -0.1653 0.5771 -0.784 -0.2287 
0.641 -0.7642 -0.0716 0.6846 -0.7263 0.0611 0.6637 -0.7472 -0.0341 
0.641 -0.7642 -0.0716 0.6409 -0.7675 0.0127 0.649 -0.7551 0.0928 
0.6846 -0.7263 0.0611 0.6846 -0.7263 0.0611 0.649 -0.7551 0.0928 
0.6537 -0.7568 0 0.7029 -0.7113 0 0.7029 -0.7113 0 
0.6537 -0.7568 0 0.649 -0.7551 -0.0928 0.6846 -0.7263 -0.0611 
0.6846 -0.7263 -0.0611 0.649 -0.7551 -0.0928 0.6409 -0.7675 -0.0127 
0.641 -0.7642 0.0716 0.6637 -0.7472 0.0341 0.6846 -0.7263 -0.0611 
0.641 -0.7642 0.0716 0.5771 -0.784 0.2287 0.4916 -0.8549 0.1653 
0.6637 -0.7472 0.0341 0.5771 -0.784 0.2287 0.389 -0.825 0.4098 
0 -0.9731 0.2304 0.4916 -0.8549 0.1653 0.389 -0.825 0.4098 
0 -0.8649 0.5018 0 -1 0 0.5368 -0.8437 0 
0.4916 -0.8549 0.1653 0 -0.9731 0.2304 0 -0.9731 -0.2304 
0.4916 -0.8549 -0.1653 0.5368 -0.8437 0 0 -1 0 
0.3546 -0.2489 -0.9012 0.2497 -0.1945 -0.9486 0.2003 -0.0391 -0.9789 
0.262 -0.0821 -0.9615 0.2497 -0.1945 -0.9486 0.1345 -0.1643 -0.9772 
0.1084 -0.0018 -0.9941 0.2003 -0.0391 -0.9789 0.262 -0.0821 -0.9615 
0.2003 -0.0391 -0.9789 0.1469 0.0876 -0.9853 0.1952 0.0285 -0.9803 
0.2003 -0.0391 -0.9789 0.1084 -0.0018 -0.9941 0.059 0.1657 -0.9844 
0.1469 0.0876 -0.9853 0.6111 -0.5432 -0.5757 0.444 -0.4451 -0.7776 
0.3546 -0.2489 -0.9012 0.4343 -0.2983 -0.8499 0.444 -0.4451 -0.7776 
0.2986 -0.374 -0.878 0.2497 -0.1945 -0.9486 0.3546 -0.2489 -0.9012 
0.2986 -0.374 -0.878 0.1559 -0.3384 -0.928 0.1345 -0.1643 -0.9772 
0.2497 -0.1945 -0.9486 0.1559 -0.3384 -0.928 0 -0.3276 -0.9448 
0 -0.1538 -0.9881 0.1345 -0.1643 -0.9772 0.1345 -0.1643 -0.9772 
0 -0.1538 -0.9881 0 0.0148 -0.9999 0.1084 -0.0018 -0.9941 
0.1084 -0.0018 -0.9941 0 0.0148 -0.9999 0 0.2138 -0.9769 
0.059 0.1657 -0.9844 0.059 0.1657 -0.9844 0 0.2138 -0.9769 
0 0.6135 -0.7896 -0.0206 0.3506 -0.9363 0.1469 0.0876 -0.9853 
0.059 0.1657 -0.9844 -0.0206 0.3506 -0.9363 0.0775 0.1868 -0.9793 
0.1952 0.0285 -0.9803 0.1469 0.0876 -0.9853 0.0775 0.1868 -0.9793 
0.1388 0.1005 -0.9852 0.219 -0.0073 -0.9757 0.1952 0.0285 -0.9803 
0.1388 0.1005 -0.9852 0.1762 0.0567 -0.9827 0.2961 -0.1153 -0.9481 
0.262 -0.0821 -0.9615 0.1952 0.0285 -0.9803 0.219 -0.0073 -0.9757 
0.4343 -0.2983 -0.8499 0.3546 -0.2489 -0.9012 0.262 -0.0821 -0.9615 
0.2961 -0.1153 -0.9481 0.1345 -0.1643 0.9772 0.2497 -0.1945 0.9486 