# vtk DataFile Version 4.2
vtk output
ASCII
DATASET POLYDATA
FIELD FieldData 1
MaterialNames 1 1 string
None

POINTS 1792 float
0.040613 -0.351741 -0.113139 0.058137 -0.298418 -0.164885 0.114881 -0.283459 -0.153354 
0.0812 -0.335648 -0.106949 0.058137 -0.298418 -0.164885 0.076479 -0.222196 -0.217254 
0.151974 -0.209695 -0.200882 0.114881 -0.283459 -0.153354 0.0812 -0.335648 -0.106949 
0.114881 -0.283459 -0.153354 0.167389 -0.264138 -0.132588 0.119671 -0.313454 -0.094522 
0.114881 -0.283459 -0.153354 0.151974 -0.209695 -0.200882 0.223925 -0.191561 -0.173076 
0.167389 -0.264138 -0.132588 -0 -0.391682 -0.068484 0 -0.358402 -0.115001 
0.040613 -0.351741 -0.113139 0.026996 -0.384523 -0.067837 0 -0.358402 -0.115001 
-0 -0.304177 -0.168469 0.058137 -0.298418 -0.164885 0.040613 -0.351741 -0.113139 
-0 -0.304177 -0.168469 -0 -0.226616 -0.222672 0.076479 -0.222196 -0.217254 
0.058137 -0.298418 -0.164885 -0 -0.226616 -0.222672 -0 -0.126533 -0.268898 
0.091123 -0.123989 -0.262042 0.076479 -0.222196 -0.217254 0.076479 -0.222196 -0.217254 
0.091123 -0.123989 -0.262042 0.181967 -0.115221 -0.242743 0.151974 -0.209695 -0.200882 
0.151974 -0.209695 -0.200882 0.181967 -0.115221 -0.242743 0.27247 -0.097967 -0.212334 
0.223925 -0.191561 -0.173076 0.223925 -0.191561 -0.173076 0.27247 -0.097967 -0.212334 
0.370032 -0.063713 -0.165329 0.28187 -0.174499 -0.129954 0.167389 -0.264138 -0.132588 
0.223925 -0.191561 -0.173076 0.28187 -0.174499 -0.129954 0.207037 -0.245094 -0.099191 
0.119671 -0.313454 -0.094522 0.167389 -0.264138 -0.132588 0.207037 -0.245094 -0.099191 
0.14857 -0.294119 -0.073096 0.086885 -0.343116 -0.060851 0.119671 -0.313454 -0.094522 
0.14857 -0.294119 -0.073096 0.112579 -0.321325 -0.055243 0.055887 -0.36741 -0.065565 
0.0812 -0.335648 -0.106949 0.119671 -0.313454 -0.094522 0.086885 -0.343116 -0.060851 
0.026996 -0.384523 -0.067837 0.040613 -0.351741 -0.113139 0.0812 -0.335648 -0.106949 
0.055887 -0.36741 -0.065565 0.47346 0.011354 0.08173 0.469665 0.005241 0 
0.531047 0.096792 0 0.535556 0.104718 0.076582 0.469665 0.005241 0 
0.47346 0.011354 -0.08173 0.535556 0.104718 -0.076582 0.531047 0.096792 0 
0.535556 0.104718 0.076582 0.531047 0.096792 0 0.578155 0.185473 -0 
0.578199 0.191099 0.069074 0.531047 0.096792 0 0.535556 0.104718 -0.076582 
0.578199 0.191099 -0.069074 0.578155 0.185473 -0 0.370032 -0.063713 0.165329 
0.395028 -0.082842 0.080806 0.47346 0.011354 0.08173 0.466675 0.043607 0.15347 
0.395028 -0.082842 0.080806 0.394642 -0.083357 0 0.469665 0.005241 0 
0.47346 0.011354 0.08173 0.394642 -0.083357 0 0.395028 -0.082842 -0.080806 
0.47346 0.011354 -0.08173 0.469665 0.005241 0 0.395028 -0.082842 -0.080806 
0.370032 -0.063713 -0.165329 0.466675 0.043607 -0.15347 0.47346 0.011354 -0.08173 
0.47346 0.011354 -0.08173 0.466675 0.043607 -0.15347 0.52996 0.13493 -0.1423 
0.535556 0.104718 -0.076582 0.535556 0.104718 -0.076582 0.52996 0.13493 -0.1423 
0.57102 0.213812 -0.126714 0.578199 0.191099 -0.069074 0.578199 0.191099 -0.069074 
0.57102 0.213812 -0.126714 0.591067 0.267655 -0.1098 0.602476 0.269784 -0.064883 
0.578155 0.185473 -0 0.578199 0.191099 -0.069074 0.602476 0.269784 -0.064883 
0.608428 0.270975 -0 0.578199 0.191099 0.069074 0.578155 0.185473 -0 
0.608428 0.270975 -0 0.602476 0.269783 0.064883 0.57102 0.213812 0.126714 
0.578199 0.191099 0.069074 0.602476 0.269783 0.064883 0.591067 0.267655 0.1098 
0.52996 0.13493 0.1423 0.535556 0.104718 0.076582 0.578199 0.191099 0.069074 
0.57102 0.213812 0.126714 0.466675 0.043607 0.15347 0.47346 0.011354 0.08173 
0.535556 0.104718 0.076582 0.52996 0.13493 0.1423 0.223925 -0.191561 0.173076 
0.151974 -0.209695 0.200882 0.114881 -0.283459 0.153354 0.167389 -0.264138 0.132588 
0.151974 -0.209695 0.200882 0.076479 -0.222196 0.217254 0.058137 -0.298418 0.164885 
0.114881 -0.283459 0.153354 0.167389 -0.264138 0.132588 0.114881 -0.283459 0.153354 
0.0812 -0.335648 0.106949 0.119671 -0.313454 0.094522 0.114881 -0.283459 0.153354 
0.058137 -0.298418 0.164885 0.040613 -0.351741 0.113139 0.0812 -0.335648 0.106949 
0.370032 -0.063713 0.165329 0.27247 -0.097967 0.212334 0.223925 -0.191561 0.173076 
0.28187 -0.174499 0.129954 0.27247 -0.097967 0.212334 0.181967 -0.115221 0.242743 
0.151974 -0.209695 0.200882 0.223925 -0.191561 0.173076 0.181967 -0.115221 0.242743 
0.091123 -0.123989 0.262042 0.076479 -0.222196 0.217254 0.151974 -0.209695 0.200882 
0.091123 -0.123989 0.262042 -0 -0.126533 0.268898 -0 -0.226616 0.222672 
0.076479 -0.222196 0.217254 0.076479 -0.222196 0.217254 -0 -0.226616 0.222672 
-0 -0.304177 0.168469 0.058137 -0.298418 0.164885 0.058137 -0.298418 0.164885 
-0 -0.304177 0.168469 -0 -0.358402 0.115001 0.040613 -0.351741 0.113139 
0.040613 -0.351741 0.113139 -0 -0.358402 0.115001 -0 -0.391682 0.068484 
0.026996 -0.384522 0.067837 0.0812 -0.335648 0.106949 0.040613 -0.351741 0.113139 
0.026996 -0.384522 0.067837 0.055887 -0.367411 0.065565 0.119671 -0.313454 0.094522 
0.0812 -0.335648 0.106949 0.055887 -0.367411 0.065565 0.086885 -0.343116 0.060851 
0.14857 -0.294119 0.073096 0.119671 -0.313454 0.094522 0.086885 -0.343116 0.060851 
0.112579 -0.321325 0.055243 0.207037 -0.245094 0.099191 0.167389 -0.264138 0.132588 
0.119671 -0.313454 0.094522 0.14857 -0.294119 0.073096 0.28187 -0.174499 0.129954 
0.223925 -0.191561 0.173076 0.167389 -0.264138 0.132588 0.207037 -0.245094 0.099191 
0.1596 -0.283238 -0.03961 0.227148 -0.232959 -0.052803 0.230139 -0.225669 0 
0.159954 -0.27677 0 0.227148 -0.232959 -0.052803 0.308561 -0.166609 -0.068381 
0.31079 -0.160776 0 0.230139 -0.225669 0 0.159954 -0.27677 0 
0.230139 -0.225669 0 0.227148 -0.232959 0.052803 0.1596 -0.283238 0.03961 
0.230139 -0.225669 0 0.31079 -0.160776 0 0.308561 -0.166609 0.068381 
0.227148 -0.232959 0.052803 0.112579 -0.321325 -0.055243 0.14857 -0.294119 -0.073096 
0.1596 -0.283238 -0.03961 0.107789 -0.32163 -0.031376 0.14857 -0.294119 -0.073096 
0.207037 -0.245094 -0.099191 0.227148 -0.232959 -0.052803 0.1596 -0.283238 -0.03961 
0.207037 -0.245094 -0.099191 0.28187 -0.174499 -0.129954 0.308561 -0.166609 -0.068381 
0.227148 -0.232959 -0.052803 0.28187 -0.174499 -0.129954 0.370032 -0.063713 -0.165329 
0.395028 -0.082842 -0.080806 0.308561 -0.166609 -0.068381 0.308561 -0.166609 -0.068381 
0.395028 -0.082842 -0.080806 0.394642 -0.083357 0 0.31079 -0.160776 0 
0.31079 -0.160776 0 0.394642 -0.083357 0 0.395028 -0.082842 0.080806 
0.308561 -0.166609 0.068381 0.308561 -0.166609 0.068381 0.395028 -0.082842 0.080806 
0.370032 -0.063713 0.165329 0.28187 -0.174499 0.129954 0.227148 -0.232959 0.052803 
0.308561 -0.166609 0.068381 0.28187 -0.174499 0.129954 0.207037 -0.245094 0.099191 
0.1596 -0.283238 0.03961 0.227148 -0.232959 0.052803 0.207037 -0.245094 0.099191 
0.14857 -0.294119 0.073096 0.107789 -0.32163 0.031376 0.1596 -0.283238 0.03961 
0.14857 -0.294119 0.073096 0.112579 -0.321325 0.055243 0.104439 -0.318592 0 
0.159954 -0.27677 0 0.1596 -0.283238 0.03961 0.107789 -0.32163 0.031376 
0.107789 -0.32163 -0.031376 0.1596 -0.283238 -0.03961 0.159954 -0.27677 0 
0.104439 -0.318592 0 0.403885 0.269641 0.237745 0.434341 0.192827 0.225949 
0.491136 0.260393 0.210171 0.453716 0.330897 0.221549 0.434341 0.192827 0.225949 
0.455561 0.111393 0.200892 0.516263 0.190552 0.186164 0.491136 0.260393 0.210171 
0.453716 0.330897 0.221549 0.491136 0.260393 0.210171 0.534975 0.327337 0.184912 
0.49499 0.393307 0.194031 0.491136 0.260393 0.210171 0.516263 0.190552 0.186164 
0.558993 0.263011 0.164169 0.534975 0.327337 0.184912 0.327479 0.284147 0.25161 
0.345414 0.225642 0.250243 0.403885 0.269641 0.237745 0.35956 0.330055 0.242941 
0.345414 0.225642 0.250243 0.365086 0.140396 0.240963 0.434341 0.192827 0.225949 
0.403885 0.269641 0.237745 0.365086 0.140396 0.240963 0.378212 0.043529 0.217745 
0.455561 0.111393 0.200892 0.434341 0.192827 0.225949 0.378212 0.043529 0.217745 
0.370032 -0.063713 0.165329 0.466675 0.043607 0.15347 0.455561 0.111393 0.200892 
0.455561 0.111393 0.200892 0.466675 0.043607 0.15347 0.52996 0.13493 0.1423 
0.516263 0.190552 0.186164 0.516263 0.190552 0.186164 0.52996 0.13493 0.1423 
0.57102 0.213812 0.126714 0.558993 0.263011 0.164169 0.558993 0.263011 0.164169 
0.57102 0.213812 0.126714 0.591067 0.267655 0.1098 0.587187 0.316765 0.12758 
0.534975 0.327337 0.184912 0.558993 0.263011 0.164169 0.587187 0.316765 0.12758 
0.566316 0.381345 0.142122 0.49499 0.393307 0.194031 0.534975 0.327337 0.184912 
0.566316 0.381345 0.142122 0.525321 0.444638 0.148058 0.438649 0.450984 0.196765 
0.49499 0.393307 0.194031 0.525321 0.444638 0.148058 0.467433 0.498773 0.148787 
0.400612 0.391193 0.226184 0.453716 0.330897 0.221549 0.49499 0.393307 0.194031 
0.438649 0.450984 0.196765 0.35956 0.330055 0.242941 0.403885 0.269641 0.237745 
0.453716 0.330897 0.221549 0.400612 0.391193 0.226184 0.605595 0.3435 -0.070271 
0.585456 0.413236 -0.077363 0.592001 0.42329 -0 0.612529 0.350858 -0 
0.585456 0.413236 -0.077363 0.543973 0.476378 -0.080311 0.550018 0.486759 -0 
0.592001 0.42329 -0 0.612529 0.350858 -0 0.592001 0.42329 -0 
0.585456 0.413236 0.077363 0.605595 0.3435 0.070271 0.592001 0.42329 -0 
0.550018 0.486759 -0 0.543973 0.476378 0.080311 0.585456 0.413236 0.077363 
0.591067 0.267655 -0.1098 0.587187 0.316765 -0.12758 0.605595 0.3435 -0.070271 
0.602476 0.269784 -0.064883 0.587187 0.316765 -0.12758 0.566316 0.381345 -0.142122 
0.585456 0.413236 -0.077363 0.605595 0.3435 -0.070271 0.566316 0.381345 -0.142122 
0.525321 0.444638 -0.148058 0.543973 0.476378 -0.080311 0.585456 0.413236 -0.077363 
0.525321 0.444638 -0.148058 0.467433 0.498773 -0.148787 0.485622 0.528662 -0.080339 
0.543973 0.476378 -0.080311 0.543973 0.476378 -0.080311 0.485622 0.528662 -0.080339 
0.491419 0.538407 -0 0.550018 0.486759 -0 0.550018 0.486759 -0 
0.491419 0.538407 -0 0.485622 0.528662 0.080339 0.543973 0.476378 0.080311 
0.543973 0.476378 0.080311 0.485622 0.528662 0.080339 0.467433 0.498773 0.148787 
0.525321 0.444638 0.148058 0.585456 0.413236 0.077363 0.543973 0.476378 0.080311 
[...]
CELL_DATA 448
FIELD FieldData 2
MaterialIds 1 448 int
0 0 0 0 0 0 0 0 0 
0 0 0 0 0 0 0 0 0 
0 0 0 0 0 0 0 0 0 
0 0 0 0 0 0 0 0 0 
0 0 0 0 0 0 0 0 0 
0 0 0 0 0 0 0 0 0 
0 0 0 0 0 0 0 0 0 
0 0 0 0 0 0 0 0 0 
0 0 0 0 0 0 0 0 0 
0 0 0 0 0 0 0 0 0 
0 0 0 0 0 0 0 0 0 
0 0 0 0 0 0 0 0 0 
0 0 0 0 0 0 0 0 0 
0 0 0 0 0 0 0 0 0 
0 0 0 0 0 0 0 0 0 
0 0 0 0 0 0 0 0 0 
0 0 0 0 0 0 0 0 0 
0 0 0 0 0 0 0 0 0 
0 0 0 0 0 0 0 0 0 
0 0 0 0 0 0 0 0 0 
0 0 0 0 0 0 0 0 0 
0 0 0 0 0 0 0 0 0 
0 0 0 0 0 0 0 0 0 
0 0 0 0 0 0 0 0 0 
0 0 0 0 0 0 0 0 0 
0 0 0 0 0 0 0 0 0 
0 0 0 0 0 0 0 0 0 
0 0 0 0 0 0 0 0 0 
0 0 0 0 0 0 0 0 0 
0 0 0 0 0 0 0 0 0 
0 0 0 0 0 0 0 0 0 
0 0 0 0 0 0 0 0 0 
0 0 0 0 0 0 0 0 0 
0 0 0 0 0 0 0 0 0 
0 0 0 0 0 0 0 0 0 
0 0 0 0 0 0 0 0 0 
0 0 0 0 0 0 0 0 0 
0 0 0 0 0 0 0 0 0 
0 0 0 0 0 0 0 0 0 
0 0 0 0 0 0 0 0 0 
0 0 0 0 0 0 0 0 0 
0 0 0 0 0 0 0 0 0 
0 0 0 0 0 0 0 0 0 
0 0 0 0 0 0 0 0 0 
0 0 0 0 0 0 0 0 0 
0 0 0 0 0 0 0 0 0 
0 0 0 0 0 0 0 0 0 
0 0 0 0 0 0 0 0 0 
0 0 0 0 0 0 0 0 0 
0 0 0 0 0 0 0 
METADATA
INFORMATION 0

GroupIds 1 448 float
0 0 0 0 0 0 0 0 0 
0 0 0 0 0 0 0 0 0 
0 0 0 0 0 0 0 0 0 
0 0 0 0 0 0 0 0 0 
0 0 0 0 0 0 0 0 0 
0 0 0 0 0 0 0 0 0 
0 0 0 0 0 0 0 0 0 
0 0 0 0 0 0 0 0 0 
0 0 0 0 0 0 0 0 0 
0 0 0 0 0 0 0 0 0 
0 0 0 0 0 0 0 0 0 
0 0 0 0 0 0 0 0 0 
0 0 0 0 0 0 0 0 0 
0 0 0 0 0 0 0 0 0 
0 0 0 0 0 0 0 0 0 
0 0 0 0 0 0 0 0 0 
0 0 0 0 0 0 0 0 0 
0 0 0 0 0 0 0 0 0 
0 0 0 0 0 0 0 0 0 
0 0 0 0 0 0 0 0 0 
0 0 0 0 0 0 0 0 0 
0 0 0 0 0 0 0 0 0 
0 0 0 0 0 0 0 0 0 
0 0 0 0 0 0 0 0 0 
0 0 0 0 0 0 0 0 0 
0 0 0 0 0 0 0 0 0 
0 0 0 0 0 0 0 0 0 
0 0 0 0 0 0 0 0 0 
0 0 0 0 0 0 0 0 0 
0 0 0 0 0 0 0 0 0 
0 0 0 0 0 0 0 0 0 
0 0 0 0 0 0 0 0 0 
0 0 0 0 0 0 0 0 0 
0 0 0 0 0 0 0 0 0 
0 0 0 0 0 0 0 0 0 
0 0 0 0 0 0 0 0 0 
0 0 0 0 0 0 0 0 0 
0 0 0 0 0 0 0 0 0 
0 0 0 0 0 0 0 0 0 
0 0 0 0 0 0 0 0 0 
0 0 0 0 0 0 0 0 0 
0 0 0 0 0 0 0 0 0 
0 0 0 0 0 0 0 0 0 
0 0 0 0 0 0 0 0 0 
0 0 0 0 0 0 0 0 0 
0 0 0 0 0 0 0 0 0 
0 0 0 0 0 0 0 0 0 
0 0 0 0 0 0 0 0 0 
0 0 0 0 0 0 0 0 0 
0 0 0 0 0 0 0 
METADATA
INFORMATION 0

POINT_DATA 1792
NORMALS Normals float
0.2773 -0.7728 -0.5708 0.2156 -0.6587 -0.7208 0.3951 -0.6906 -0.6057 
0.4678 -0.779 -0.4175 0.2156 -0.6587 -0.7208 0.1797 -0.5156 -0.8377 
0.3431 -0.5551 -0.7577 0.3951 -0.6906 -0.6057 0.4678 -0.779 -0.4175 
0.3951 -0.6906 -0.6057 0.5312 -0.7325 -0.4258 0.5718 -0.7846 -0.2397 
0.3951 -0.6906 -0.6057 0.3431 -0.5551 -0.7577 0.4938 -0.6211 -0.6086 
0.5312 -0.7325 -0.4258 0 -0.8858 -0.464 0 -0.7728 -0.6346 
0.2773 -0.7728 -0.5708 0.3755 -0.8464 -0.3775 0 -0.7728 -0.6346 
0 -0.6475 -0.762 0.2156 -0.6587 -0.7208 0.2773 -0.7728 -0.5708 
0 -0.6475 -0.762 0 -0.5026 -0.8645 0.1797 -0.5156 -0.8377 
0.2156 -0.6587 -0.7208 0 -0.5026 -0.8645 0 -0.3341 -0.9425 
0.1557 -0.345 -0.9256 0.1797 -0.5156 -0.8377 0.1797 -0.5156 -0.8377 
0.1557 -0.345 -0.9256 0.2984 -0.3805 -0.8753 0.3431 -0.5551 -0.7577 
0.3431 -0.5551 -0.7577 0.2984 -0.3805 -0.8753 0.444 -0.4514 -0.774 
0.4938 -0.6211 -0.6086 0.4938 -0.6211 -0.6086 0.444 -0.4514 -0.774 
0.6113 -0.5486 -0.5704 0.6157 -0.6911 -0.3785 0.5312 -0.7325 -0.4258 
0.4938 -0.6211 -0.6086 0.6157 -0.6911 -0.3785 0.609 -0.7668 -0.2026 
0.5718 -0.7846 -0.2397 0.5312 -0.7325 -0.4258 0.609 -0.7668 -0.2026 
0.6119 -0.7884 -0.0628 0.6239 -0.7798 -0.0518 0.5718 -0.7846 -0.2397 
0.6119 -0.7884 -0.0628 0.6241 -0.7808 0.0298 0.5591 -0.8035 -0.2041 
0.4678 -0.779 -0.4175 0.5718 -0.7846 -0.2397 0.6239 -0.7798 -0.0518 
0.3755 -0.8464 -0.3775 0.2773 -0.7728 -0.5708 0.4678 -0.779 -0.4175 
0.5591 -0.8035 -0.2041 0.7879 -0.5913 0.1718 0.7982 -0.6024 0 
0.8601 -0.5101 0 0.8567 -0.4929 0.1521 0.7982 -0.6024 0 
0.7879 -0.5913 -0.1718 0.8567 -0.4929 -0.1521 0.8601 -0.5101 0 
0.8567 -0.4929 0.1521 0.8601 -0.5101 0 0.921 -0.3894 0 
0.9178 -0.3713 0.1403 0.8601 -0.5101 0 0.8567 -0.4929 -0.1521 
0.9178 -0.3713 -0.1403 0.921 -0.3894 0 0.6113 -0.5486 0.5704 
0.7228 -0.6717 0.1626 0.7879 -0.5913 0.1718 0.6894 -0.4917 0.5319 
0.7228 -0.6717 0.1626 0.7279 -0.6856 0 0.7982 -0.6024 0 
0.7879 -0.5913 0.1718 0.7279 -0.6856 0 0.7228 -0.6717 -0.1626 
0.7879 -0.5913 -0.1718 0.7982 -0.6024 0 0.7228 -0.6717 -0.1626 
0.6113 -0.5486 -0.5704 0.6894 -0.4917 -0.5319 0.7879 -0.5913 -0.1718 
0.7879 -0.5913 -0.1718 0.6894 -0.4917 -0.5319 0.7815 -0.4041 -0.4753 
0.8567 -0.4929 -0.1521 0.8567 -0.4929 -0.1521 0.7815 -0.4041 -0.4753 
0.8647 -0.2874 -0.4118 0.9178 -0.3713 -0.1403 0.9178 -0.3713 -0.1403 
0.8647 -0.2874 -0.4118 0.9255 -0.1562 -0.345 0.9725 -0.172 -0.157 
0.921 -0.3894 0 0.9178 -0.3713 -0.1403 0.9725 -0.172 -0.157 
0.9835 -0.1809 0 0.9178 -0.3713 0.1403 0.921 -0.3894 0 
0.9835 -0.1809 0 0.9725 -0.172 0.157 0.8647 -0.2874 0.4118 
0.9178 -0.3713 0.1403 0.9725 -0.172 0.157 0.9255 -0.1562 0.345 
0.7815 -0.4041 0.4753 0.8567 -0.4929 0.1521 0.9178 -0.3713 0.1403 
0.8647 -0.2874 0.4118 0.6894 -0.4917 0.5319 0.7879 -0.5913 0.1718 
0.8567 -0.4929 0.1521 0.7815 -0.4041 0.4753 0.4938 -0.6211 0.6086 
0.3431 -0.5551 0.7577 0.3951 -0.6906 0.6057 0.5312 -0.7325 0.4258 
0.3431 -0.5551 0.7577 0.1797 -0.5156 0.8377 0.2156 -0.6587 0.7208 
0.3951 -0.6906 0.6057 0.5312 -0.7325 0.4258 0.3951 -0.6906 0.6057 
0.4678 -0.779 0.4175 0.5718 -0.7846 0.2397 0.3951 -0.6906 0.6057 
0.2156 -0.6587 0.7208 0.2773 -0.7728 0.5708 0.4678 -0.779 0.4175 
0.6113 -0.5486 0.5704 0.444 -0.4514 0.774 0.4938 -0.6211 0.6086 
0.6157 -0.6911 0.3785 0.444 -0.4514 0.774 0.2984 -0.3805 0.8753 
0.3431 -0.5551 0.7577 0.4938 -0.6211 0.6086 0.2984 -0.3805 0.8753 
0.1557 -0.345 0.9256 0.1797 -0.5156 0.8377 0.3431 -0.5551 0.7577 
0.1557 -0.345 0.9256 0 -0.3341 0.9425 0 -0.5026 0.8645 
0.1797 -0.5156 0.8377 0.1797 -0.5156 0.8377 0 -0.5026 0.8645 
0 -0.6475 0.762 0.2156 -0.6587 0.7208 0.2156 -0.6587 0.7208 
0 -0.6475 0.762 0 -0.7728 0.6346 0.2773 -0.7728 0.5708 
0.2773 -0.7728 0.5708 0 -0.7728 0.6346 0 -0.8858 0.464 
0.3755 -0.8464 0.3775 0.4678 -0.779 0.4175 0.2773 -0.7728 0.5708 
0.3755 -0.8464 0.3775 0.5591 -0.8035 0.2041 0.5718 -0.7846 0.2397 
0.4678 -0.779 0.4175 0.5591 -0.8035 0.2041 0.6239 -0.7798 0.0518 
0.6119 -0.7884 0.0628 0.5718 -0.7846 0.2397 0.6239 -0.7798 0.0518 
0.6241 -0.7808 -0.0298 0.609 -0.7668 0.2026 0.5312 -0.7325 0.4258 
0.5718 -0.7846 0.2397 0.6119 -0.7884 0.0628 0.6157 -0.6911 0.3785 
0.4938 -0.6211 0.6086 0.5312 -0.7325 0.4258 0.609 -0.7668 0.2026 
0.607 -0.7916 0.0694 0.6223 -0.7827 -0.0042 0.6173 -0.7867 0 
0.6018 -0.7986 0 0.6223 -0.7827 -0.0042 0.6662 -0.7395 -0.0967 
0.6622 -0.7493 0 0.6173 -0.7867 0 0.6018 -0.7986 0 
0.6173 -0.7867 0 0.6223 -0.7827 0.0042 0.607 -0.7916 -0.0694 
0.6173 -0.7867 0 0.6622 -0.7493 0 0.6662 -0.7395 0.0967 
0.6223 -0.7827 0.0042 0.6241 -0.7808 0.0298 0.6119 -0.7884 -0.0628 
0.607 -0.7916 0.0694 0.6312 -0.7677 0.1104 0.6119 -0.7884 -0.0628 
0.609 -0.7668 -0.2026 0.6223 -0.7827 -0.0042 0.607 -0.7916 0.0694 
0.609 -0.7668 -0.2026 0.6157 -0.6911 -0.3785 0.6662 -0.7395 -0.0967 
0.6223 -0.7827 -0.0042 0.6157 -0.6911 -0.3785 0.6113 -0.5486 -0.5704 
0.7228 -0.6717 -0.1626 0.6662 -0.7395 -0.0967 0.6662 -0.7395 -0.0967 
0.7228 -0.6717 -0.1626 0.7279 -0.6856 0 0.6622 -0.7493 0 
0.6622 -0.7493 0 0.7279 -0.6856 0 0.7228 -0.6717 0.1626 
0.6662 -0.7395 0.0967 0.6662 -0.7395 0.0967 0.7228 -0.6717 0.1626 
0.6113 -0.5486 0.5704 0.6157 -0.6911 0.3785 0.6223 -0.7827 0.0042 
0.6662 -0.7395 0.0967 0.6157 -0.6911 0.3785 0.609 -0.7668 0.2026 
0.607 -0.7916 -0.0694 0.6223 -0.7827 0.0042 0.609 -0.7668 0.2026 
0.6119 -0.7884 0.0628 0.6312 -0.7677 -0.1104 0.607 -0.7916 -0.0694 
0.6119 -0.7884 0.0628 0.6241 -0.7808 -0.0298 0.6366 -0.7712 0 
0.6018 -0.7986 0 0.607 -0.7916 -0.0694 0.6312 -0.7677 -0.1104 
0.6312 -0.7677 0.1104 0.607 -0.7916 0.0694 0.6018 -0.7986 0 
0.6366 -0.7712 0 0.2436 0.0174 0.9697 0.3387 -0.1058 0.9349 
0.4339 -0.0374 0.9001 0.3175 0.1056 0.9424 0.3387 -0.1058 0.9349 
0.5057 -0.2897 0.8126 0.6092 -0.2235 0.7609 0.4339 -0.0374 0.9001 
0.3175 0.1056 0.9424 0.4339 -0.0374 0.9001 0.5893 0.1014 0.8015 
0.4568 0.2739 0.8463 0.4339 -0.0374 0.9001 0.6092 -0.2235 0.7609 
0.7341 -0.1019 0.6713 0.5893 0.1014 0.8015 0.1686 0.0631 0.9836 
0.2138 -0.002 0.9769 0.2436 0.0174 0.9697 0.1812 0.1066 0.9776 
0.2138 -0.002 0.9769 0.2935 -0.1119 0.9494 0.3387 -0.1058 0.9349 
0.2436 0.0174 0.9697 0.2935 -0.1119 0.9494 0.4345 -0.299 0.8496 
0.5057 -0.2897 0.8126 0.3387 -0.1058 0.9349 0.4345 -0.299 0.8496 
0.6113 -0.5486 0.5704 0.6894 -0.4917 0.5319 0.5057 -0.2897 0.8126 
0.5057 -0.2897 0.8126 0.6894 -0.4917 0.5319 0.7815 -0.4041 0.4753 
0.6092 -0.2235 0.7609 0.6092 -0.2235 0.7609 0.7815 -0.4041 0.4753 
0.8647 -0.2874 0.4118 0.7341 -0.1019 0.6713 0.7341 -0.1019 0.6713 
0.8647 -0.2874 0.4118 0.9255 -0.1562 0.345 0.8787 0.0421 0.4755 
0.5893 0.1014 0.8015 0.7341 -0.1019 0.6713 0.8787 0.0421 0.4755 
0.7678 0.277 0.5776 0.4568 0.2739 0.8463 0.5893 0.1014 0.8015 
0.7678 0.277 0.5776 0.6228 0.4823 0.616 0.3443 0.4079 0.8456 
0.4568 0.2739 0.8463 0.6228 0.4823 0.616 0.4723 0.6343 0.612 
0.2349 0.2135 0.9482 0.3175 0.1056 0.9424 0.4568 0.2739 0.8463 
0.3443 0.4079 0.8456 0.1812 0.1066 0.9776 0.2436 0.0174 0.9697 
0.3175 0.1056 0.9424 0.2349 0.2135 0.9482 0.969 0.1111 -0.2205 
0.878 0.3905 -0.2767 0.9071 0.4209 0 0.9927 0.1203 0 
0.878 0.3905 -0.2767 0.7266 0.6183 -0.2996 0.7543 0.6565 0 
0.9071 0.4209 0 0.9927 0.1203 0 0.9071 0.4209 0 
0.878 0.3905 0.2767 0.969 0.1111 0.2205 0.9071 0.4209 0 
0.7543 0.6565 0 0.7266 0.6183 0.2996 0.878 0.3905 0.2767 
0.9255 -0.1562 -0.345 0.8787 0.0421 -0.4755 0.969 0.1111 -0.2205 
0.9725 -0.172 -0.157 0.8787 0.0421 -0.4755 0.7678 0.277 -0.5776 
0.878 0.3905 -0.2767 0.969 0.1111 -0.2205 0.7678 0.277 -0.5776 
0.6228 0.4823 -0.616 0.7266 0.6183 -0.2996 0.878 0.3905 -0.2767 
0.6228 0.4823 -0.616 0.4723 0.6343 -0.612 0.5519 0.7786 -0.2986 
0.7266 0.6183 -0.2996 0.7266 0.6183 -0.2996 0.5519 0.7786 -0.2986 
0.5733 0.8193 0 0.7543 0.6565 0 0.7543 0.6565 0 
0.5733 0.8193 0 0.5519 0.7786 0.2986 0.7266 0.6183 0.2996 
0.7266 0.6183 0.2996 0.5519 0.7786 0.2986 0.4723 0.6343 0.612 
0.6228 0.4823 0.616 0.878 0.3905 0.2767 0.7266 0.6183 0.2996 
0.6228 0.4823 0.616 0.7678 0.277 0.5776 0.969 0.1111 0.2205 
0.878 0.3905 0.2767 0.7678 0.277 0.5776 0.8787 0.0421 0.4755 
0.9725 -0.172 0.157 0.969 0.1111 0.2205 0.8787 0.0421 0.4755 
0.9255 -0.1562 0.345 0.9835 -0.1809 0 0.9927 0.1203 0 
0.969 0.1111 0.2205 0.9725 -0.172 0.157 0.9725 -0.172 -0.157 
0.969 0.1111 -0.2205 0.9927 0.1203 0 0.9835 -0.1809 0 
0.3646 0.8865 -0.2848 0.1535 0.9536 -0.2589 0.1621 0.9868 0 
0.3788 0.9254 0 0.1535 0.9536 -0.2589 -0.0878 0.9723 -0.2164 
-0.093 0.9956 0 0.1621 0.9868 0 0.3788 0.9254 0 
0.1621 0.9868 0 0.1535 0.9536 0.2589 0.3646 0.8865 0.2848 
0.1621 0.9868 0 -0.093 0.9956 0 -0.0878 0.9723 0.2164 
0.1535 0.9536 0.2589 0.4723 0.6343 -0.612 0.3093 0.7467 -0.5889 
0.3646 0.8865 -0.2848 0.5519 0.7786 -0.2986 0.3093 0.7467 -0.5889 
0.1133 0.8317 -0.5436 0.1535 0.9536 -0.2589 0.3646 0.8865 -0.2848 
0.1133 0.8317 -0.5436 -0.1114 0.8778 -0.4658 -0.0878 0.9723 -0.2164 
0.1535 0.9536 -0.2589 -0.1114 0.8778 -0.4658 -0.3189 0.8751 -0.3639 
-0.3544 0.9172 -0.1818 -0.0878 0.9723 -0.2164 -0.0878 0.9723 -0.2164 
-0.3544 0.9172 -0.1818 -0.3687 0.9295 0 -0.093 0.9956 0 
-0.093 0.9956 0 -0.3687 0.9295 0 -0.3544 0.9172 0.1818 
-0.0878 0.9723 0.2164 -0.0878 0.9723 0.2164 -0.3544 0.9172 0.1818 
-0.3189 0.8751 0.3639 -0.1114 0.8778 0.4658 0.1535 0.9536 0.2589 
-0.0878 0.9723 0.2164 -0.1114 0.8778 0.4658 0.1133 0.8317 0.5436 
0.3646 0.8865 0.2848 0.1535 0.9536 0.2589 0.1133 0.8317 0.5436 
0.3093 0.7467 0.5889 0.5519 0.7786 0.2986 0.3646 0.8865 0.2848 
0.3093 0.7467 0.5889 0.4723 0.6343 0.612 0.5733 0.8193 0 
0.3788 0.9254 0 0.3646 0.8865 0.2848 0.5519 0.7786 0.2986 
0.5519 0.7786 -0.2986 0.3646 0.8865 -0.2848 0.3788 0.9254 0 
0.5733 0.8193 0 0.1084 0.1796 -0.9777 -0.0023 0.2899 -0.957 
-0.0156 0.4232 -0.9059 0.1386 0.3077 -0.9413 -0.0023 0.2899 -0.957 
-0.1515 0.4914 -0.8576 -0.2371 0.5767 -0.7818 -0.0156 0.4232 -0.9059 
0.1386 0.3077 -0.9413 -0.0156 0.4232 -0.9059 0.0398 0.6243 -0.7801 
0.2173 0.5181 -0.8272 -0.0156 0.4232 -0.9059 -0.2371 0.5767 -0.7818 
-0.1914 0.7182 -0.669 0.0398 0.6243 -0.7801 0.1686 0.0631 -0.9836 
0.1309 0.109 -0.9854 0.1084 0.1796 -0.9777 0.1812 0.1066 -0.9776 
0.1309 0.109 -0.9854 0.0716 0.1987 -0.9774 -0.0023 0.2899 -0.957 
0.1084 0.1796 -0.9777 0.0716 0.1987 -0.9774 -0.0229 0.3654 -0.9305 
-0.1515 0.4914 -0.8576 -0.0023 0.2899 -0.957 -0.0229 0.3654 -0.9305 
0 0.627 -0.779 -0.331 0.7448 -0.5794 -0.1515 0.4914 -0.8576 
-0.1515 0.4914 -0.8576 -0.331 0.7448 -0.5794 -0.4696 0.7229 -0.5068 
-0.2371 0.5767 -0.7818 -0.2371 0.5767 -0.7818 -0.4696 0.7229 -0.5068 
-0.4247 0.7899 -0.4423 -0.1914 0.7182 -0.669 -0.1914 0.7182 -0.669 
-0.4247 0.7899 -0.4423 -0.3189 0.8751 -0.3639 -0.1114 0.8778 -0.4658 
0.0398 0.6243 -0.7801 -0.1914 0.7182 -0.669 -0.1114 0.8778 -0.4658 
0.1133 0.8317 -0.5436 0.2173 0.5181 -0.8272 0.0398 0.6243 -0.7801 
0.1133 0.8317 -0.5436 0.3093 0.7467 -0.5889 0.3443 0.4079 -0.8456 
0.2173 0.5181 -0.8272 0.3093 0.7467 -0.5889 0.4723 0.6343 -0.612 
0.2349 0.2135 -0.9482 0.1386 0.3077 -0.9413 0.2173 0.5181 -0.8272 
0.3443 0.4079 -0.8456 0.1812 0.1066 -0.9776 0.1084 0.1796 -0.9777 
0.1386 0.3077 -0.9413 0.2349 0.2135 -0.9482 0.5057 -0.2897 -0.8126 
0.3387 -0.1058 -0.9349 0.4339 -0.0374 -0.9001 0.6092 -0.2235 -0.7608 
0.3387 -0.1058 -0.9349 0.2436 0.0174 -0.9697 0.3175 0.1056 -0.9424 
0.4339 -0.0374 -0.9001 0.6092 -0.2235 -0.7608 0.4339 -0.0374 -0.9001 
0.5893 0.1014 -0.8015 0.7341 -0.1019 -0.6713 0.4339 -0.0374 -0.9001 
0.3175 0.1056 -0.9424 0.4568 0.2739 -0.8463 0.5893 0.1014 -0.8015 
0.6113 -0.5486 -0.5704 0.4345 -0.299 -0.8496 0.5057 -0.2897 -0.8126 
0.6894 -0.4917 -0.5319 0.4345 -0.299 -0.8496 0.2935 -0.1119 -0.9494 
0.3387 -0.1058 -0.9349 0.5057 -0.2897 -0.8126 0.2935 -0.1119 -0.9494 
0.2138 -0.002 -0.9769 0.2436 0.0174 -0.9697 0.3387 -0.1058 -0.9349 
0.2138 -0.002 -0.9769 0.1686 0.0631 -0.9836 0.1812 0.1066 -0.9776 
0.2436 0.0174 -0.9697 0.2436 0.0174 -0.9697 0.1812 0.1066 -0.9776 
0.2349 0.2135 -0.9482 0.3175 0.1056 -0.9424 0.3175 0.1056 -0.9424 
0.2349 0.2135 -0.9482 0.3443 0.4079 -0.8456 0.4568 0.2739 -0.8463 
0.4568 0.2739 -0.8463 0.3443 0.4079 -0.8456 0.4723 0.6343 -0.612 
0.6228 0.4823 -0.616 0.5893 0.1014 -0.8015 0.4568 0.2739 -0.8463 
0.6228 0.4823 -0.616 0.7678 0.277 -0.5776 0.7341 -0.1019 -0.6713 
0.5893 0.1014 -0.8015 0.7678 0.277 -0.5776 0.8787 0.0421 -0.4755 
0.8647 -0.2874 -0.4118 0.7341 -0.1019 -0.6713 0.8787 0.0421 -0.4755 
0.9255 -0.1562 -0.345 0.7815 -0.4041 -0.4753 0.6092 -0.2235 -0.7608 
0.7341 -0.1019 -0.6713 0.8647 -0.2874 -0.4118 0.6894 -0.4917 -0.5319 
0.5057 -0.2897 -0.8126 0.6092 -0.2235 -0.7608 0.7815 -0.4041 -0.4753 
-0.4572 0.8631 -0.2146 -0.4792 0.8777 0 -0.6266 0.7793 0 
-0.5974 0.7751 -0.2056 -0.4792 0.8777 0 -0.4572 0.8631 0.2146 
-0.5974 0.7751 0.2056 -0.6266 0.7793 0 -0.5974 0.7751 -0.2056 
-0.6266 0.7793 0 -0.5636 0.826 0 -0.5415 0.8191 -0.1891 
-0.6266 0.7793 0 -0.5974 0.7751 0.2056 -0.5415 0.8191 0.1891 
-0.5636 0.826 0 0 0.627 -0.779 0 0.9703 -0.2419 
-0.4572 0.8631 -0.2146 -0.331 0.7448 -0.5794 0 0.9703 -0.2419 
0 1 0 -0.4792 0.8777 0 -0.4572 0.8631 -0.2146 
0 1 0 0 0.9703 0.2419 -0.4572 0.8631 0.2146 
-0.4792 0.8777 0 0 0.9703 0.2419 0 0.627 0.779 
-0.331 0.7448 0.5794 -0.4572 0.8631 0.2146 -0.4572 0.8631 0.2146 
-0.331 0.7448 0.5794 -0.4696 0.7229 0.5068 -0.5974 0.7751 0.2056 
-0.5974 0.7751 0.2056 -0.4696 0.7229 0.5068 -0.4247 0.7899 0.4423 
-0.5415 0.8191 0.1891 -0.5415 0.8191 0.1891 -0.4247 0.7899 0.4423 
-0.3189 0.8751 0.3639 -0.3544 0.9172 0.1818 -0.5636 0.826 0 
-0.5415 0.8191 0.1891 -0.3544 0.9172 0.1818 -0.3687 0.9295 0 
-0.5415 0.8191 -0.1891 -0.5636 0.826 0 -0.3687 0.9295 0 
-0.3544 0.9172 -0.1818 -0.4247 0.7899 -0.4423 -0.5415 0.8191 -0.1891 
-0.3544 0.9172 -0.1818 -0.3189 0.8751 -0.3639 -0.4696 0.7229 -0.5068 
-0.5974 0.7751 -0.2056 -0.5415 0.8191 -0.1891 -0.4247 0.7899 -0.4423 
-0.331 0.7448 -0.5794 -0.4572 0.8631 -0.2146 -0.5974 0.7751 -0.2056 
-0.4696 0.7229 -0.5068 -0.1515 0.4914 0.8576 -0.0023 0.2899 0.957 
-0.0156 0.4232 0.9059 -0.2371 0.5767 0.7818 -0.0023 0.2899 0.957 
0.1084 0.1796 0.9777 0.1386 0.3077 0.9413 -0.0156 0.4232 0.9059 
-0.2371 0.5767 0.7818 -0.0156 0.4232 0.9059 0.0398 0.6243 0.7801 
-0.1914 0.7182 0.669 -0.0156 0.4232 0.9059 0.1386 0.3077 0.9413 
0.2173 0.5181 0.8272 0.0398 0.6243 0.7801 0 0.627 0.779 
-0.0229 0.3654 0.9305 -0.1515 0.4914 0.8576 -0.331 0.7448 0.5794 
-0.0229 0.3654 0.9305 0.0716 0.1987 0.9774 -0.0023 0.2899 0.957 
-0.1515 0.4914 0.8576 0.0716 0.1987 0.9774 0.1309 0.109 0.9854 
0.1084 0.1796 0.9777 -0.0023 0.2899 0.957 0.1309 0.109 0.9854 
0.1686 0.0631 0.9836 0.1812 0.1066 0.9776 0.1084 0.1796 0.9777 
0.1084 0.1796 0.9777 0.1812 0.1066 0.9776 0.2349 0.2135 0.9482 
0.1386 0.3077 0.9413 0.1386 0.3077 0.9413 0.2349 0.2135 0.9482 
0.3443 0.4079 0.8456 0.2173 0.5181 0.8272 0.2173 0.5181 0.8272 
0.3443 0.4079 0.8456 0.4723 0.6343 0.612 0.3093 0.7467 0.5889 
0.0398 0.6243 0.7801 0.2173 0.5181 0.8272 0.3093 0.7467 0.5889 
0.1133 0.8317 0.5436 -0.1914 0.7182 0.669 0.0398 0.6243 0.7801 
0.1133 0.8317 0.5436 -0.1114 0.8778 0.4658 -0.4247 0.7899 0.4423 
-0.1914 0.7182 0.669 -0.1114 0.8778 0.4658 -0.3189 0.8751 0.3639 
-0.4696 0.7229 0.5068 -0.2371 0.5767 0.7818 -0.1914 0.7182 0.669 
-0.4247 0.7899 0.4423 -0.331 0.7448 0.5794 -0.1515 0.4914 0.8576 
-0.2371 0.5767 0.7818 -0.4696 0.7229 0.5068 0.4716 -0.8719 -0.132 
0.6413 -0.7672 -0.01 0.6758 -0.7371 0 0.5154 -0.857 0 
0.6413 -0.7672 -0.01 0.6646 -0.7428 0.0807 0.6834 -0.73 0 
0.6758 -0.7371 0 0.5154 -0.857 0 0.6758 -0.7371 0 
0.6413 -0.7672 0.01 0.4716 -0.8719 0.132 0.6758 -0.7371 0 
0.6834 -0.73 0 0.6646 -0.7428 -0.0807 0.6413 -0.7672 0.01 
0 -0.8858 -0.464 0.3755 -0.8464 -0.3775 0.4716 -0.8719 -0.132 
0 -0.9816 -0.1911 0.3755 -0.8464 -0.3775 0.5591 -0.8035 -0.2041 
0.6413 -0.7672 -0.01 0.4716 -0.8719 -0.132 0.5591 -0.8035 -0.2041 
0.6239 -0.7798 -0.0518 0.6646 -0.7428 0.0807 0.6413 -0.7672 -0.01 
0.6239 -0.7798 -0.0518 0.6241 -0.7808 0.0298 0.6312 -0.7677 0.1104 
0.6646 -0.7428 0.0807 0.6646 -0.7428 0.0807 0.6312 -0.7677 0.1104 
0.6366 -0.7712 0 0.6834 -0.73 0 0.6834 -0.73 0 
0.6366 -0.7712 0 0.6312 -0.7677 -0.1104 0.6646 -0.7428 -0.0807 
0.6646 -0.7428 -0.0807 0.6312 -0.7677 -0.1104 0.6241 -0.7808 -0.0298 
0.6239 -0.7798 0.0518 0.6413 -0.7672 0.01 0.6646 -0.7428 -0.0807 
0.6239 -0.7798 0.0518 0.5591 -0.8035 0.2041 0.4716 -0.8719 0.132 
0.6413 -0.7672 0.01 0.5591 -0.8035 0.2041 0.3755 -0.8464 0.3775 
0 -0.9816 0.1911 0.4716 -0.8719 0.132 0.3755 -0.8464 0.3775 
0 -0.8858 0.464 0 -1 0 0.5154 -0.857 0 
0.4716 -0.8719 0.132 0 -0.9816 0.1911 0 -0.9816 -0.1911 
0.4716 -0.8719 -0.132 0.5154 -0.857 0 0 -1 0 
0.3547 -0.2495 -0.901 0.2496 -0.1948 -0.9485 0.1997 -0.0335 -0.9793 
0.2604 -0.0774 -0.9624 0.2496 -0.1948 -0.9485 0.1344 -0.1644 -0.9772 
0.1082 0.0042 -0.9941 0.1997 -0.0335 -0.9793 0.2604 -0.0774 -0.9624 
0.1997 -0.0335 -0.9793 0.1448 0.0979 -0.9846 0.191 0.0364 -0.9809 
0.1997 -0.0335 -0.9793 0.1082 0.0042 -0.9941 0.0586 0.1775 -0.9824 
0.1448 0.0979 -0.9846 0.6113 -0.5486 -0.5704 0.444 -0.4514 -0.774 
0.3547 -0.2495 -0.901 0.4345 -0.299 -0.8496 0.444 -0.4514 -0.774 
0.2984 -0.3805 -0.8753 0.2496 -0.1948 -0.9485 0.3547 -0.2495 -0.901 
0.2984 -0.3805 -0.8753 0.1557 -0.345 -0.9256 0.1344 -0.1644 -0.9772 
0.2496 -0.1948 -0.9485 0.1557 -0.345 -0.9256 0 -0.3341 -0.9425 
0 -0.1538 -0.9881 0.1344 -0.1644 -0.9772 0.1344 -0.1644 -0.9772 
0 -0.1538 -0.9881 0 0.0209 -0.9998 0.1082 0.0042 -0.9941 
0.1082 0.0042 -0.9941 0 0.0209 -0.9998 0 0.226 -0.9741 
0.0586 0.1775 -0.9824 0.0586 0.1775 -0.9824 0 0.226 -0.9741 
0 0.627 -0.779 -0.0229 0.3654 -0.9305 0.1448 0.0979 -0.9846 
0.0586 0.1775 -0.9824 -0.0229 0.3654 -0.9305 0.0716 0.1987 -0.9774 
0.191 0.0364 -0.9809 0.1448 0.0979 -0.9846 0.0716 0.1987 -0.9774 
0.1309 0.109 -0.9854 0.2138 -0.002 -0.9769 0.191 0.0364 -0.9809 
0.1309 0.109 -0.9854 0.1686 0.0631 -0.9836 0.2935 -0.1119 -0.9494 
0.2604 -0.0774 -0.9624 0.191 0.0364 -0.9809 0.2138 -0.002 -0.9769 
0.4345 -0.299 -0.8496 0.3547 -0.2495 -0.901 0.2604 -0.0774 -0.9624 
0.2935 -0.1119 -0.9494 0.1344 -0.1644 0.9772 0.2496 -0.1948 0.9485 
0.1997 -0.0335 0.9793 0.1082 0.0042 0.9941 0.2496 -0.1948 0.9485 