# vtk DataFile Version 4.0 
Unicorn heart vtk output
ASCII
DATASET POLYDATA

POINTS 1000 float 
0.242394 0.257324 -0.031565 
-0.266273 0.097711 -0.082205 
0.108671 0.078641 -0.110741 
0.105345 0.329442 -0.22509 
0.280634 0.220188 0.09662 
0.155721 0.326647 -0.122541 
-0.051421 -0.227514 0.072264 
-0.01157 -0.204106 -0.04085 
0.154446 0.427636 -0.11968 
0.005308 -0.218286 -0.061091 
-0.025907 0.046966 -0.005071 
-0.370209 0.134506 -0.057249 
0.135346 0.310272 -0.142521 
0.055049 0.015356 -0.127635 
-0.28123 0.115584 0.093635 
0.066722 0.240293 0.030698 
0.027335 0.03973 -0.240461 
0.120309 -0.027507 -0.148125 
0.076994 -0.022751 -0.078971 
0.022122 0.188301 -0.249908 
-0.150918 0.063158 0.150278 
-0.001113 0.163238 -0.160346 
-0.009678 -0.061312 -0.163579 
0.241265 0.184777 0.039534 
0.386031 0.260746 -0.125114 
-0.108585 0.432611 -0.002324 
0.188091 0.212185 0.08121 
0.386743 0.304151 -0.003181 
-0.09825 0.128961 0.14622 
-0.067499 0.320557 -0.069209 
-0.025449 0.35588 0.08611 
0.082924 0.259253 0.002004 
0.159047 0.302356 -0.182625 
0.209255 0.292689 -0.198906 
0.09571 0.010299 0.059372 
0.209743 0.16192 0.181498 
0.236378 0.331141 -0.019639 
-0.002677 0.091555 -0.13547 
-0.180842 0.336077 0.203223 
0.148469 0.233434 0.001285 
0.371556 0.084095 -0.0374 
0.16996 0.211246 0.154431 
-0.268088 0.254356 -0.049413 
0.044496 0.284584 0.224355 
0.090705 0.276138 0.138508 
0.202587 0.05607 0.071576 
0.281512 0.157337 0.006904 
-0.16308 0.103969 -0.057409 
0.399865 0.265468 0.074896 
0.207922 0.018025 -0.001191 
0.067865 0.072033 0.098975 
-0.059372 0.422625 0.189031 
0.241215 0.241021 -0.006236 
0.189711 0.135758 -0.00971 
-0.070913 -0.150063 0.066219 
-0.02682 -0.09855 -0.08304 
0.086664 0.29499 0.22386 
0.118233 -0.024543 -0.153414 
-0.188401 0.181273 -0.087362 
0.06256 0.3743 0.195194 
0.097431 0.419189 -0.097127 
0.162112 0.166782 -0.139129 
0.007776 -0.191073 -0.10638 
0.15108 0.243673 -0.010939 
0.041648 0.026206 -0.243967 
0.291374 0.146345 0.099121 
0.193954 0.198143 -0.018683 
-0.190207 0.08456 0.22446 
-0.249153 0.272996 0.001907 
-0.222217 0.263596 0.030594 
-0.20462 0.415234 -0.036405 
0.113202 0.10932 0.058927 
0.151802 0.467257 0.085605 
-0.090607 0.387301 -0.07519 
0.048639 0.008987 0.024301 
0.120541 0.075372 -0.238052 
-0.086928 -0.012188 0.146197 
-0.021631 0.034295 0.168482 
-0.292112 0.168387 -0.01327 
-0.189874 0.333268 -0.056142 
-0.191767 0.192427 0.24796 
0.165225 0.420237 -0.098433 
0.019571 -0.104477 0.087824 
-0.041878 0.063295 -0.231784 
-0.076378 0.338676 -0.085203 
-0.074255 0.048151 0.136042 
0.24158 0.315015 -0.191869 
-0.020234 -0.034299 -0.095325 
0.100198 -0.192982 0.130665 
-0.179487 0.401432 -0.105162 
-0.093398 0.052274 0.046631 
-0.314566 0.413609 0.117332 
-0.211541 0.127026 0.017573 
0.236356 0.323163 0.097892 
-0.072644 -0.14664 -0.114477 
0.142108 0.231092 -0.002508 
0.315082 -0.010713 -0.028677 
-0.112836 0.432841 0.119933 
0.112035 0.148882 -0.136771 
-0.13464 0.15034 0.231163 
0.248271 0.257387 -0.043776 
-0.247635 0.237898 0.056503 
-0.222819 0.10288 -0.1271 
-0.031702 0.083665 0.107578 
0.205938 0.244001 0.196296 
-0.002152 0.173176 -0.174834 
0.101549 0.308793 -0.08161 
0.088375 -0.068045 -0.148137 
-0.006543 -0.225507 -0.07593 
0.266135 0.283449 0.07912 
0.272035 0.217666 -0.017603 
-0.014735 -0.090345 -0.069065 
-0.141389 0.193622 -0.226575 
-0.031864 0.370439 0.03961 
0.238035 0.211574 0.058851 
-0.162212 -0.013653 -0.190878 
-0.110724 0.264236 0.175893 
0.286306 0.268021 0.036649 
0.203248 0.041067 0.001552 
0.164348 0.32104 0.06999 
0.154631 0.476853 0.074923 
-0.081075 0.416514 -0.08793 
0.176842 0.293895 -0.016844 
-0.229315 0.508838 0.12499 
0.233272 0.299972 0.116943 
-0.280008 0.203661 0.066202 
0.259095 0.089782 0.038423 
0.073253 0.104827 -0.086752 
-0.171394 -0.041482 0.212393 
0.133693 0.455708 -0.047419 
0.201935 0.362011 0.043255 
0.030831 0.362332 -0.214484 
0.17849 0.392946 -0.151163 
0.232526 0.154298 0.104125 
-0.097017 0.370374 0.184647 
-0.02558 0.090083 0.101105 
0.220455 0.518739 -0.08484 
-0.021101 0.195626 0.17741 
0.014322 0.206458 0.009931 
-0.17664 0.283891 -0.203331 
0.053398 0.199246 -0.148736 
-0.03913 0.107737 -0.168929 
-0.174213 0.326059 0.196917 
-0.171651 0.219063 0.089343 
-0.041673 0.03479 0.241298 
0.174736 0.401126 -0.085842 
-0.116022 0.228919 -0.10434 
-0.058844 0.357069 -0.182126 
0.062409 0.345494 0.05233 
0.158885 0.373566 -0.130735 
-0.010626 -0.055724 -0.165905 
0.088675 0.096006 -0.003474 
-0.252476 0.131633 -0.177194 
0.226565 0.087623 -0.135646 
0.040077 -0.122499 -0.038611 
-0.003851 0.430212 -0.026305 
0.222026 0.32154 -0.026135 
0.225981 0.328497 0.099386 
-0.075109 -0.192506 -0.05931 
0.143581 0.131939 -0.027753 
0.086155 0.126742 -0.247458 
0.292566 0.218839 -0.067216 
-0.268334 0.238576 0.077697 
0.233694 -0.080299 -0.107542 
0.081943 0.195417 -0.170239 
0.231211 0.111743 0.083185 
-0.272891 0.368903 -0.078947 
-0.080137 0.302562 0.075244 
0.323308 0.324122 -0.180182 
-0.098695 0.109497 -0.166791 
-0.1387 0.106839 -0.080608 
-0.041306 0.067088 -0.225973 
-0.035158 0.1226 0.168947 
-0.05006 0.191374 -0.159427 
-0.058183 0.02012 -0.168017 
0.225446 0.275744 0.051953 
0.348071 0.404145 -0.098814 
0.041422 0.394926 -0.086847 
-0.044388 0.182569 -0.11287 
-0.286228 0.326858 -0.142129 
0.041175 0.354022 -0.072265 
-0.091831 0.300188 -0.092018 
-0.310054 0.168563 0.091809 
0.161077 0.070844 0.048108 
0.09315 -0.179375 -0.147162 
0.046546 0.005792 -0.167901 
0.228763 0.218892 -0.097796 
-0.157447 0.286794 0.23521 
-0.239545 0.241642 -0.111256 
-0.235422 0.152014 0.154709 
-0.24343 0.393103 -0.080519 
0.064016 0.281799 -0.079457 
0.285886 0.043153 -0.166224 
0.166403 0.388215 0.107398 
0.135776 0.323807 0.080952 
0.174934 0.167471 -0.244419 
-0.298392 0.241651 -0.057297 
0.291509 0.167574 -0.056452 
-0.137565 0.283085 0.125002 
0.198309 0.395305 0.196955 
0.021954 -0.222215 0.053255 
0.017036 -0.17949 -0.010818 
0.243689 -0.064297 0.012791 
-0.092133 -0.054956 -0.008068 
-0.256271 0.186286 0.131951 
0.186521 -0.009682 -0.079185 
0.020066 0.026915 -0.10668 
0.063581 -0.278315 0.123246 
-0.288904 0.233771 -0.104576 
-0.016839 -0.202224 -0.060197 
0.1217 0.382423 -0.215276 
0.012148 -0.263705 0.043975 
-0.199427 0.347876 -0.000848 
0.066914 0.13193 -0.184351 
-0.14064 0.257294 0.02143 
-0.080937 -0.236061 -0.041801 
-0.096097 0.258535 0.142634 
-0.043774 0.101788 -0.103503 
-0.281489 -0.010483 0.113455 
0.20227 0.332999 -0.036095 
-0.246145 0.24233 0.036731 
0.0943 0.347226 -0.170372 
0.010096 -0.148312 -0.045242 
-0.285016 0.169078 -0.168494 
-0.135773 0.450709 -0.044196 
-0.24819 0.211359 0.015033 
-0.221497 -0.072514 0.109283 
-0.048667 0.058318 0.168885 
-0.292623 0.209976 -0.038227 
-0.297853 0.310262 0.088311 
0.183008 0.283006 -0.004694 
0.095369 0.199153 -0.252843 
-0.276939 0.296234 -0.015354 
0.053007 0.275366 0.095807 
-0.03667 0.252019 0.215127 
-0.21187 0.108838 -0.010958 
-0.088948 -0.057844 -0.111873 
0.120298 0.275891 0.162231 
-0.103955 0.266999 -0.076327 
-0.233732 0.231031 0.243987 
0.16603 0.397198 -0.006396 
0.211683 0.120351 0.017001 
-0.24161 0.361695 0.214074 
-0.06567 -0.025435 -0.129783 
0.124941 0.001185 0.000922 
0.207991 0.119825 -0.17952 
0.19198 0.114248 -0.057436 
-0.017273 0.138458 -0.241962 
-0.135008 0.056275 0.106841 
-0.180903 0.243086 -0.098237 
-0.360615 0.211855 0.131107 
-0.130863 0.438635 0.02015 
0.28128 0.18698 -0.108499 
0.185994 0.078598 -0.158534 
-0.055324 0.022199 -0.088978 
-0.027138 0.410779 -0.096562 
0.118468 0.236726 0.17076 
-0.002952 -0.206065 0.002132 
0.279594 0.328988 -0.213241 
0.024662 0.047323 0.149257 
-0.125324 -0.037507 -0.087425 
0.225429 0.292674 0.152461 
-0.120314 0.160245 -0.061508 
-0.104086 0.401679 -0.064538 
0.21161 0.04045 0.091746 
-0.099233 0.097776 -0.099576 
0.214331 0.417282 0.16634 
0.175326 0.134791 -0.156808 
-0.088141 0.386394 -0.018829 
0.05341 0.233389 0.187311 
-0.11865 0.271637 0.030615 
0.095699 0.294665 0.223685 
-0.170212 0.242638 0.191454 
0.180763 0.240489 -0.007573 
0.316413 0.17695 0.143213 
-0.148093 0.307397 0.166831 
0.137492 -0.032218 0.07585 
-0.239875 0.302336 -0.135455 
0.131186 0.291199 0.001773 
0.370269 0.094053 -0.023403 
0.064646 0.396947 -0.0232 
-0.094638 0.099466 -0.082105 
0.294587 0.015854 -0.042756 
0.028075 0.20484 -0.166003 
0.067869 0.305888 0.129407 
-0.252151 0.39155 0.011565 
0.045194 -0.052123 0.027904 
-0.335616 0.025239 0.014351 
-0.103875 -0.078134 0.139192 
-0.084184 0.301531 -0.109942 
-0.181307 -0.075407 -0.022593 
0.179688 0.354093 0.113115 
0.273729 0.156205 0.077513 
0.2762 0.157795 -0.004847 
-0.184669 0.113115 -0.030939 
-0.129673 0.120465 -0.230129 
-0.05439 -0.149891 0.096863 
0.142458 0.376506 -0.017994 
0.19046 0.325234 -0.22006 
0.1219 0.130138 0.150861 
0.069756 0.378269 -0.018066 
-0.298746 0.252285 0.161192 
0.134014 0.232187 -0.019436 
-0.226031 0.064233 0.229537 
-0.251527 0.360646 0.067244 
-0.058097 0.254221 -0.11741 
-0.146366 0.133472 0.237568 
0.168943 0.394996 0.080142 
0.206115 0.060951 -0.091593 
0.051177 0.384114 0.041112 
-0.056411 0.030629 -0.051677 
-0.022953 -0.138414 -0.201019 
-0.247483 0.277887 0.009229 
-0.232611 0.322008 0.078254 
-0.156156 -0.090066 -0.156412 
-0.268126 0.130013 -0.075675 
0.237987 0.234041 -0.145462 
-0.122971 0.236503 -0.173139 
-0.078075 0.167654 -0.081302 
-0.335141 0.023065 0.011384 
0.255027 0.110261 -0.044083 
0.08911 -0.011222 0.015652 
0.232511 0.322412 0.176796 
0.138616 0.37342 0.109412 
0.074561 0.230722 -0.127058 
-0.1187 -0.051752 0.030516 
0.060979 -0.029158 0.063574 
-0.075111 0.373942 -0.149496 
0.286061 0.229015 0.020514 
0.247077 0.299702 -0.033445 
0.282404 0.425135 0.118605 
0.150353 0.403505 0.088346 
0.160841 0.263876 -0.168693 
-0.082869 0.340008 -0.16511 
0.129671 0.298231 0.038139 
-0.212455 0.324652 -0.196171 
-0.041768 0.039609 -0.163896 
-0.09575 0.337444 0.032033 
-0.087276 -0.062306 -0.171645 
0.024194 0.125995 0.174104 
0.20507 0.173801 0.119834 
-0.014555 0.348074 0.161605 
-0.017333 0.027892 0.102497 
[...]
POINT_DATA 1000
SCALARS alpha float
LOOKUP_TABLE alpha
1.446676093051777
2.3548653887005706
1.912222442374242
1.0412870138245502
2.3095442987454344
1.4503331045853871
2.1666675111489524
2.1522080997968063
1.9990548752957713
2.234715325860066
2.35369394495694
2.058632707027238
1.4116981296631181
1.7568178977059248
1.9110907999237763
0.786389872847725
0.8255100657084047
1.798003131571942
1.9891052460277352
1.3486530868554718
1.8111304079185742
1.768171836530976
2.080683679988761
2.303616561988281
1.676415213432489
0.9571092000444582
2.3453505267258405
1.2847891960061095
1.710829627567125
0.7854205376877769
0.845893366057923
1.4587649408003676
1.8266133791664558
1.431728760303174
1.8093946688440594
1.7214429283007842
0.9716587698940329
1.6324791499696987
1.1226336412816549
0.9259170572645596
1.8925278277103528
1.8472546829966554
1.4153942919272156
0.8174881689309984
0.9738757818263978
2.356151115198109
2.2918760781512657
2.0685430027382017
1.2085596698135377
2.2555008780367025
1.783346605159604
1.1359673771012375
1.5967847249595617
2.3143354050171783
2.276635081211469
2.0038205080315117
2.2671360069347233
1.9906018527747098
1.9785200725092031
0.7898395083783369
0.8632518081265463
1.4992497954451445
2.2308518767066094
2.0402779296869737
1.1304868824252694
2.209710503914732
2.1560762662531947
1.6988101968452691
0.9987117061317508
1.1954651198071895
0.8109385831781081
1.8167098610452617
1.9275018734758083
0.7856994392032266
2.0192085899017536
2.090923545225932
1.8919247253272429
1.9461348154801554
2.0527752665182275
0.7877493937509964
1.6923701676283867
0.9684460844219891
2.059111921972932
2.3361129541824814
0.8033348290233004
1.6931772378409908
1.1669189513336715
1.9863999308530644
2.355250469257715
0.7978284790942138
1.7523462840333635
0.9643091985074875
2.225857673325653
0.7880573556680768
2.155863900493377
0.8293433052269438
2.229701398375839
0.9446996940741706
1.3401572823796806
1.852360270041236
1.6468101242820576
1.6890642493798096
1.841081278358779
1.5711287501452076
1.5228656898045483
1.362379945326306
1.0298035374939656
1.9319366224705077
2.2370906756428606
2.0415355505090536
2.1570804162479034
1.9900612446484172
1.8993556029818304
0.7854638143068272
1.8031611437360022
2.2399011674591205
1.3888547528594437
0.8623569500589797
2.2980017120040435
0.8669750235213022
1.903701806103406
0.7854036457585757
0.785469370875726
0.920390625690683
2.3536204914977303
1.624208613922591
2.293079440621254
1.6532724363838913
2.060080503117125
0.9204988498049127
0.8314169717390689
0.9888358719655045
1.2328086526032118
2.2827311797875005
1.3614419267017568
1.7240672824921568
0.8655528455803888
1.2231067126546002
0.7893651865492617
1.8421543590164988
1.7529969960203367
1.8361616841524893
1.4492027265692191
1.5751195337129136
1.8761651379891993
0.9522428903705602
1.5703233858726564
0.8260906417560319
0.7912646454883115
1.1812891962902616
1.9518411703308014
2.3389370452058884
2.214175629812975
1.8939962789974194
2.1462817150438585
2.288602443373897
0.9770540731193752
0.8799821074670982
2.3545787317031994
2.202213969777221
1.1247278584211238
1.9158636975407772
1.710066424562412
2.2145373808434616
1.9784866736713722
2.3549270197422065
0.7854386672311368
0.950904194173193
1.520589161191157
2.2996402069762434
2.0535723056791504
2.2956815293530073
1.816969572412622
1.5562971312706961
1.9407065072896337
1.0198135102678658
1.1972546064880414
0.8765829212926095
0.9447544731893422
1.310159111597811
0.8211214231303984
1.0717372989601672
1.8797475444620013
2.0575944261513848
2.1539891104257674
1.7097670925978785
1.6949641542307237
1.348939642159576
0.8738377591339769
1.4684770830481473
0.7888678354455659
1.091341267043466
2.1633299397657106
1.022081831634228
0.8577444959278846
1.8026365490282847
1.3484179054903624
2.0080693867776214
1.4052349973556133
0.8535112697440592
2.2144916576887335
2.286553438513156
2.2002908415743234
2.341388184504001
1.864395781041326
2.2002105547159965
1.8663628133081451
2.3502979879266017
1.9811941731146445
2.2338335496052752
1.231917963534327
2.3249482200011458
0.8394011856892915
1.6156967285333417
1.8432594108583564
2.346622848197509
1.384110273503904
1.556906554913525
2.0445270550397
0.9391420768640717
1.4745025735527453
1.148694051918492
1.9136239390242686
1.6992778604945913
0.8011169605425373
1.7483266534882407
2.2084735459928506
1.4854603088032337
1.849961794115825
1.4273120425915566
0.937836585178604
1.351093246927698
0.8395489256474333
1.010279331579007
1.0041979854585628
2.2917899792359813
2.171548730822447
1.0934022128228074
1.5637215916877638
1.447452740710615
0.7866786890953117
2.2530606246323828
1.2518576500558585
2.1041489929922785
2.3496499238647415
1.6771687454583677
1.9833645620092832
1.139841453784862
1.9645120550119157
2.1651536958513304
1.680434470702143
0.8409397782195015
1.9627038299781328
1.8305351901901663
2.085219700034482
1.2310354118720035
1.0854835539090142
2.289002799892564
1.59341296239773
2.2192521378521333
2.3092298485609177
0.8772403926693934
1.580812727224524
2.3068915105856282
2.345518025541255
1.750865670361672
0.9074484469236632
1.8801776902253506
0.8043570552322719
0.978971095852101
0.8448882300975401
1.3725366346436585
1.4277474254835214
2.3158029879155113
2.2942662770052196
1.4066273196269217
2.298257400158816
0.8145967036537436
0.8217891647955149
2.1032740663788094
0.8044168046313842
1.987062183963844
2.1899301277889474
1.4863097307718036
0.8059437600325574
0.8584204798251758
2.1841918553877178
2.225943909228698
2.0782483864143733
0.8911148708135771
2.34735843822637
0.8446610318043937
2.352998613025558
2.1503082735749772
2.3300623249644516
0.7881068632071034
2.253640575749224
0.8004865725759496
1.286164540378698
1.415528605315783
0.8040949880481393
1.4360136266119865
1.057127733450352
1.920998926258311
0.978047205177129
0.871000325972783
2.093174333247592
0.8233679262522539
2.1147264248357773
0.7854507669447319
1.765689266647184
2.328985394784652
0.8986998847586264
1.2565522483761569
2.2873953326959704
2.0256523360715684
1.71762651997703
1.3658085110847802
1.0130471978582705
2.3052059350077303
2.273706433548031
2.337467369331903
1.3736206861529288
0.8555761873006631
1.5173612368138203
2.2229943966927874
2.094322726831032
2.2192214645926813
1.1371177247777033
1.3116259807882222
0.900445543427103
0.7970723298721893
1.8925030775815415
0.8012727769891418
0.9248724584807031
0.8709988371953791
1.380538981411817
0.8844381447503913
2.2622860621516443
1.541961449588169
1.7282818458774876
0.8572039995152155
1.8446619029388793
1.4817407323454064
2.264418889885606
1.2367834525046382
0.8176184144766009
1.690170135642581
1.7390415456305794
0.7970441254515477
1.099047346105572
0.7912298513316269
1.7508511947468317
1.9838237757316621
2.2219823865789747
2.329627184627144
1.5614125879308405
2.3467261219394526
1.289929127627653
2.0649029415573397
1.4793682612381982
1.6354059554345726
1.3475377489132956
2.0254758172068725
1.4637765098391027
1.402279279344357
0.7881574260047026
1.4719845510217482
2.0068844707818028
1.7659697815130153
2.2758103239557754
1.7166067729935004
2.1306659307815203
1.413605641359239
0.8482249984137099
0.9825010240133852
2.3000859888642515
1.7349035952415446
1.852536311554825
0.8349092572725725
2.123325235850274
0.7886870090560619
0.9099839672265948
2.3165542188576795
1.9341994660296753
0.8957955862830476
2.1648539933526374
1.243704659813845
2.1863289502760557
2.3407054479684635
1.5303952861074441
2.113173347140638
0.875402007162558
2.2240801069616083
1.7079462144731046
2.328379472383506
1.31232547551119
1.1831711376819933
2.1921956267846427
2.344209641900628
1.095911658888223
0.7908039819100996
1.6028377778839917
2.353047725413175
1.4418033390142657
1.4085355470079055
1.86781602710398
1.433932079685421
2.0727584255333182
2.142971328876722
2.3418843189830314
1.5954121216425308
0.840156196028262
2.199339456174253
1.800611700836289
2.3559544180604037
0.9937762712977695
1.8158725837772092
0.7894704865215354
0.8207023988728107
0.8953026414331078
1.824915866726306
0.7892631726760505
0.9506862408439254
1.6318973504814778
0.8010846680036422
0.9292550884903162
1.9055355886698324
1.5450052437579356
0.813005889112952
1.0830256019099056
2.054815602168613
1.9009174662263488
2.2403098090550126
2.0488847903559924
2.281224742582925
2.356052767661801
2.2833217901919114
1.8314459593510881
1.5163998269759307
1.5984270324400298
2.1772947202234443
0.9841016068121452
2.247038425615987
1.485748962916209
2.174765427854976
0.8061786968820859
1.915590958989177
1.929199127530064
0.7861287170405612
1.2253898400777323
1.7003193854098957
0.9947012383090614
1.2145798777375842
2.348661979344106
2.2748786925401223
2.22773478441399
1.1858700195812661
0.8220552380872453
2.085337278021795
1.291731701238087
0.9028273663715807
1.8120220148763773
1.118746518165308
2.0967543446853214
0.8624916109026329
2.157972439846672
2.1820179291041417
2.3533188130722453
2.2136655595629997
2.347450495714935
0.8708099247528491
0.7872348923209389
2.3471806111465705
2.2244678757958276
2.306271041669149
0.8137005773380218
2.293305389487977
0.7858747889318245
1.2041516925183016
1.2235557751777661
1.5545178349078002
2.0848063890874355
1.664286301099169
1.3728963160962409
2.2410588293884857
1.41486273972597
2.3560908970067187
1.3391049850983614
0.8946236469194029
2.2460611172739973
2.003887072823939
2.3229050707631353
2.3541563600071758
1.8937139486200831
2.315656085931484
2.179608810816185
2.1376103152314307
0.9140119831201504
2.0369924553236674
0.8997868471576405
0.8127881367407804
1.0000086351772837
2.303151945284746
1.8322945232285583
1.084945334093466
2.3005819326604646
2.3106130241642373
1.2797829018774862
0.8054821788227723
1.7177374339020306
1.35863409448206
2.3559079493108004
1.5147931260248513
2.2965456666300077
2.3131132065902453
0.7964082255612436
0.840671269901442
1.9283701926744268
2.083544023740201
2.3092029403017227
1.00081438518491
1.0213283760303644
1.6939341203996694
1.2218209640654745
2.350502912708352
1.7730674691551862
2.353309296546487
2.178744993671365
0.7857063622141369
2.1988016664674777
1.6382036217054272
2.3055693954994783
1.6688547516661634
2.3380291611378716
1.0082836280136689
1.2373973832744698
0.8028263306627043
2.261064994535051
0.7867990820444675
2.342645626044453
2.1055814936369806
1.4215507150120095
2.1354041373677957
1.930248701570217
1.8333290589447209
2.248845559649904
1.9223312420446172
1.5819517406477326
0.953040817533814
0.7891929104046349
2.0726827731128443
2.327216248375311
0.7987607167392665
1.5007738263372754
1.8746552327127848
2.221879655719866
2.271035494123066
1.6305037992111793
2.301235019652218
1.5231322139835868
1.5133758891463267
1.8436288353008798
2.3399556394479
0.7867452031530918
2.095658718847695
1.8839607670359504
1.0481360683233882
2.283504770897737
1.4001328829911563
1.487417870107871
2.355693095751698
1.6448784217620656
0.9160762740240175
0.8137389639871783
0.7926526492732733
2.1467205494783395
1.9763148679078961
0.8982505822870163
0.8852986050224044
0.9290995259381035
2.304205260617697
2.345195554305379
0.8415692119061262
2.229070345499575
1.952298618752211
1.3366822886287888
2.1628622118606953
2.3421056093892862
1.5113858114431515
1.5107084943887275
1.8372517632762384
2.211298097400532
2.3181764969167333
1.3002621530101504
2.239462339340278
1.538213171332077
1.602115075806146
0.8147221988194255
1.5826951055141056
0.8209049924043803
2.0509435226797788
1.6181841849796845
2.3354092864255875
0.7887954552245464
2.2563139900546054
1.693612231885662
2.1723975099724475
1.7341846934185712
1.4769214561587831
2.3552888524466167
0.9837702754278446
2.350120284714358
1.6748313125871073
1.6963355174863721
0.7925825190262674
2.13792150155395
1.2521515983131293
2.17923966094486
0.8044284451976494
2.0814556712784893
0.8241831946361813
2.2018313370224663
0.7853990054293227
2.2130479337919264
2.2282919448240315
1.6483635840182647
2.1134558076051144
2.328012851263794
1.9490362127573417
1.5729407158410533
1.5341770255408889
2.19313823332678
0.8193849365230478
0.7863308275410534
0.8877582122330946
1.2951453685518746
0.8727019860350418
1.3217259598599427
0.892073811555237
1.068034060048492
1.9946807540591196
1.719126048970097
1.9895697774896437
2.016811289804403
0.8877031059692958
1.6901953274876425
1.3669541264822278
1.2174350547822739
1.7472018868429524
1.5245622024583385
1.5464783620681088
2.298982204607444
0.8788316683446336
0.7854014152230108
2.2731655678147735
2.230708772204818
0.7958017762276249
0.8642718312909714
2.2155743758215367
2.208728821325899
0.7863563415012144
2.315624231455751
1.6803751687193034
2.2889565751461696
2.26680215121298
1.9983997234482493
1.8914683831548247
0.8229629978502209
1.9584380717339862
1.7900026903517892
0.9168340832827931
2.3503283197982605
1.8688326257947205
1.5559435895154397
0.9425898008054727
2.331269739247887
2.304183413989155
1.738512841525121
2.3561933133362647
2.1906175596132376
0.9916585623870839
0.8687803787464405
1.7382019375352267
0.802268245250423
2.348322997242979
2.141362275997529
1.60523260888257
0.8670247770832413
1.9433464295719578
1.4148792058769544
1.5926286248464134
1.52440269451208
2.1797580946210755
0.7874083906664001
1.5983155452837137
2.354258040017345
2.2033576940852213
1.365639731939897
1.5817100514863363
0.8417240006548729
1.7311216317015636
2.3478622919335064
2.016001748001848
0.9020031498548596
1.253470039183322
1.2391913451565297
1.8623763506647935
2.1041276502414306
1.8951628541237537
1.5300447456174382
1.830215467994184
1.272049348450232
2.0378574982096413
1.186346140308308
1.649779354436839
2.144514320024204
1.341470595098996
1.0556821551404174
1.0224025363226945
2.1835155397757324
2.172589929389803
0.7993677747491257
1.465790086113164
2.2497010661316956
1.6421352571189236
2.2730733151256914
1.6009769831207985
1.4415494080578661
1.8891644674109211
2.326409314611756
1.8559145939209714
1.2412757639615135
0.8181817010807574
0.7863286574093586
1.615446760734535
1.8925283264669717
1.7303494382145104
1.7979800307689568
2.2593259114141677
1.0157491733191117
1.2615424767679515
1.3633673730059388
2.3504293953620827
1.1689300820181985
1.3586410804397706
1.4660358469014703
2.054396480618946
0.8587216866979384
2.1534878271447213
2.244242250773364
0.8985909654424449
1.0547746564737783
1.3225098367274049
2.2621723960258873
0.8217209525566572
2.149337993789245
0.8547791136113592
1.3488961246174953
1.4680164588488163
1.740938063148092
2.0388651659551287
1.6271257982894511
2.1379203352528195
1.220887552764074
0.8225267923142224
2.298101431197911
2.0253166803593845
2.273097453532052
2.3230362432331204
0.8109811454564323
1.224451401482697
1.288727888308494
1.8251231416977896
1.3232338630159295
2.2744078437500885
2.1516441537117945
1.0326263478732585
0.8892183993041147
1.080852949003021
1.0629474585787924
1.0435663385654719
2.178856920903105
2.3369088063785997
1.8505517848509663
1.6459608010889715
2.3557647476589185
0.789413066725401
1.7888041496569884
1.7921420791894227
1.2896391798204583
2.347852917446257
1.2553481622876084
1.5999838321146072
1.3527407307669488
1.0550086566566208
1.2539944622082058
2.3558511350247806
1.7531014407494419
1.7710803086879356
0.8767105418311004
2.285797134692622
0.7910216614113792
1.9196834132723186
0.7898038743405296
1.4943415874691424
1.397747725895757
2.1551301274044907
1.6928581242511145
0.9931556822343414
0.7915227947775024
0.9989543273222621
0.8446176691765598
1.296587626817863
2.3096297588119246
2.3491761218685228
2.3547981190881013
2.1159220701931427
2.1428611783463185
1.8038817305264034
1.3794322948417947
2.3294257400838956
1.9924397732147845
1.147652972497777
1.8750893867498306
1.0100425583604355
1.4965310776123455
2.3367192385651734
1.1165904019233917
1.4905581333141973
2.3474373461388134
1.922443886026113
2.262557989174739
2.3406276729687923
1.1981296651690618
2.199479471200713
2.3497927179438243
1.6887225955986709
2.2646025513049906
1.3943225570116462
2.225847433300023
2.2219786824120056
1.1346953559296153
1.0660880353164572
2.1105545133896926
1.6017063667026625
2.3187342477633677
2.338025510566206
2.292844046066179
1.9721497906024348
2.2358454215877033
1.0980333463185705
0.8807653153378331
1.4140478941025068
1.7535211774568888
1.243401346716904
1.5253880793702626
0.8495581590809834
1.6743424298696525
0.7855311626783016
2.2136057663620425
0.8681161108441032
2.1132384319760824
2.275130810884539
1.5321520922581149
2.3425918900016414
0.8801207528953796
1.6418857845101364
2.064130816556216
0.8648434058937613
1.4267388403578387
2.3505717788437552
1.9522799483469573
2.1096874292514136
2.352815192939925
1.547735816422792
0.7888866289948143
2.0936879273604077
1.9415741829710165
0.8851211832163239
2.355463723446837
1.1736930894918332
0.9163979557030569
0.8175571674121823
0.842616349217326
1.5907801381774758
2.3338802541155075
2.2199805789815295
1.2117396734466115
1.0057145313594313
2.3244603408695634
1.6383142488874403
1.6336426394417347
1.1386757471554676
1.169713452460048
0.8146545626002538
0.8836511774200825
1.2279074106098444
2.340646806424912
2.1033138722324116
1.5670302013835453
0.964760340580857
2.2944891276587023
1.3847732935095345
1.389944181928337
2.35359926112078
0.7854281187819853
1.588026688582985
0.9412510606143965
1.3375412755752878
0.8744298680571926
1.4607289915942394
2.355873398413255
2.258659140413257
1.3799115477452002
1.3146079917292046
1.5064870559023382
1.8211027933860495
0.9217550444058485
2.1949572599404026
1.5868338076238533
1.4161453493517784
1.0014895525379537
0.7883153367014611
0.8604535520976357
0.8607032369013718
2.2543229970837904
1.7960742133328902
2.343923025377179
2.3501366805157273
1.9808141941477588
0.948736682074611
1.0446779856182897
2.0813798452999746
0.9041778134037236
1.2877737721588856
1.1010469643722012
0.8115446759581401
1.8347694630555684
1.7677591742647372
0.9131481270514725
0.7966798828135838
2.284868293637051
1.1018326804187402
1.4302367340586584
0.793730981549783
2.3068060546985354
1.448680103740109
1.804480419223891
1.9327040529208568
2.187639764042576
1.4134977248836698
1.8165946362435896
2.174405078124238
1.175884746913956
1.2965010929159286
1.0633624304275988
0.8707952895181634
2.305432966915858
1.7159078957738811
1.7637678027214698
1.1649814829859364
2.0396349019501394
1.0741681877712224
0.8168592513115368
2.192233255666292
1.9382846326415102
1.6738459654666407
2.3561340784468485
2.2703420709255817
1.9858069903106377
0.8072368068763135
1.6657378228097102
0.8979351674104612
1.8280396848682865
2.355054805025808
0.9924474141754244
2.0815074120928023
1.1771599706032942
1.446014954139646
2.080940902285038
0.7924628488765819
1.9141446976402627
2.3148066843032473
1.188385841197423
0.9558921167309021
0.8587928177028316
2.3250205967021724
2.0003909133937863
0.9526446515410264
1.5408988778914334
2.300524037003791
1.5120863654352532
2.1964927996236656
0.7960088059409293
1.3156563095120934
1.5943192248668479
1.5560069755261603
2.271298070436009
2.2531209601379523
SCALARS beta float
LOOKUP_TABLE beta
3.0094954118183557
1.5007880784345395
2.6481714914889998
2.0265739732846733
1.6017699216948877
2.6261568978761063
0.8121978787119921
2.4040426483081547
0.8970549131544132
2.2430709583411237
1.634292254173887
0.5629752255269279
2.348986171485773
2.809938329416517
0.5466987869650854
1.5136483762084185
1.6451927136577649
2.7913256132762756
2.667780587593605
1.9954732478702035
0.4746683733535696
2.649999940661201
2.1697871993252984
1.3059540976764887
2.698939862468575
0.9757750882765045
1.5050956225294998
2.6092499768286004
0.5031971964367125
1.5619996762039396
1.1469292546703511
1.7869917981540278
1.3567375297171331
2.334701280972134
0.2681204109712453
2.8717382456137903
2.341434316206083
2.713008992897649
0.9116837944238949
2.025136184429439
2.535360595908018
2.367624588784844
2.4721517359343563
1.2912393531320396
1.0209116629551405
1.5583951899659154
2.03632234624164
2.56699672827122
2.546336615681678
2.1601721296318286
0.5200841604383288
1.3941969940079715
3.0489434543734024
1.9313305645079761
1.0938961242554188
2.5783750281735958
1.3678828164836319
2.359082897832847
2.533389699465555
1.442472527862803
1.8748072512766853
2.6979244318904154
2.2254790185367392