# vtk DataFile Version 4.0 
Unicorn heart vtk output
ASCII
DATASET POLYDATA

POINTS 1000 float 
0.240213 0.256781 -0.025817 
-0.266587 0.100394 -0.081153 
0.114362 0.08709 -0.058687 
0.116739 0.322498 -0.210043 
0.286656 0.220559 0.077878 
0.164968 0.314951 -0.081938 
-0.048241 -0.223516 0.067482 
-0.007448 -0.191989 -0.025852 
0.160029 0.431407 -0.125476 
0.005928 -0.205905 -0.051685 
-0.000658 0.067945 -0.002207 
-0.368955 0.138219 -0.061831 
0.139557 0.308928 -0.134347 
0.055753 0.017664 -0.118648 
-0.281659 0.12704 0.076251 
0.075541 0.22069 0.023887 
0.03395 0.038673 -0.238826 
0.122578 -0.016418 -0.11701 
0.076376 -0.019069 -0.071839 
0.026656 0.187398 -0.246619 
-0.156205 0.067155 0.134609 
0.000688 0.164956 -0.155092 
-0.007997 -0.059131 -0.159432 
0.247604 0.193257 0.031188 
0.388762 0.262685 -0.108687 
-0.145367 0.396485 -0.018936 
0.191837 0.213002 0.079974 
0.3883 0.299816 0.00882 
-0.101085 0.129527 0.13978 
-0.073877 0.305426 -0.06518 
-0.035743 0.336302 0.076552 
0.048558 0.259432 0.008241 
0.188284 0.303288 -0.190518 
0.216491 0.290945 -0.190227 
0.094586 0.011902 0.05454 
0.211054 0.164136 0.186367 
0.230414 0.310348 0.001178 
-9.5E-05 0.091428 -0.126828 
-0.194051 0.329922 0.187451 
0.130619 0.223227 0.005878 
0.374061 0.086339 -0.031754 
0.170555 0.212123 0.154484 
-0.269842 0.253004 -0.04556 
0.043223 0.283059 0.222433 
0.088672 0.273721 0.135162 
0.200844 0.059389 0.070779 
0.253283 0.177702 0.008688 
-0.161791 0.107039 -0.051417 
0.400565 0.263824 0.079104 
0.201591 0.030862 0.003358 
0.070674 0.072384 0.095357 
-0.066333 0.417518 0.185956 
0.240269 0.241814 -0.003648 
0.191768 0.140213 -0.007394 
-0.066049 -0.144687 0.061931 
-0.01734 -0.081718 -0.052749 
0.085992 0.294529 0.222543 
0.121151 -0.021911 -0.145943 
-0.189906 0.18227 -0.083624 
0.061575 0.35686 0.18552 
0.118706 0.404198 -0.086856 
0.164295 0.16617 -0.130925 
0.007407 -0.18756 -0.102416 
0.147566 0.246578 -0.006449 
0.044352 0.026857 -0.242888 
0.294661 0.153904 0.099088 
0.192754 0.201378 -0.015598 
-0.205226 0.087417 0.211883 
-0.236484 0.266846 -0.004093 
-0.218084 0.260113 0.019543 
-0.207798 0.400572 -0.03763 
0.113364 0.113358 0.045484 
0.155565 0.472955 0.093137 
-0.095381 0.382093 -0.074853 
0.064139 -0.038431 0.092365 
0.128697 0.077756 -0.233481 
-0.089619 -0.009072 0.137816 
-0.022747 0.03542 0.163811 
-0.293128 0.171867 -0.017765 
-0.194784 0.329801 -0.054456 
-0.214813 0.193199 0.230535 
0.169973 0.413692 -0.092595 
0.017925 -0.101064 0.082969 
-0.034243 0.070234 -0.222401 
-0.079639 0.33351 -0.085494 
-0.075672 0.051779 0.109118 
0.247698 0.311782 -0.182979 
-0.018146 -0.024786 -0.073468 
0.098018 -0.187435 0.129682 
-0.181512 0.395233 -0.101886 
-0.091978 0.055277 0.035879 
-0.323173 0.402791 0.103284 
-0.206666 0.132697 0.013291 
0.240267 0.322338 0.097195 
-0.068876 -0.142826 -0.109607 
0.13579 0.207044 0.005506 
0.319583 -0.005762 -0.025021 
-0.120564 0.425603 0.113232 
0.11922 0.146335 -0.119684 
-0.145249 0.152331 0.220906 
0.236487 0.256796 -0.024777 
-0.246757 0.239038 0.047873 
-0.225833 0.105936 -0.12876 
-0.032762 0.084825 0.098569 
0.204928 0.244355 0.19885 
-0.000661 0.171831 -0.168779 
0.106181 0.30324 -0.074301 
0.062941 -0.099474 -0.217941 
-0.005703 -0.217839 -0.0699 
0.275899 0.286043 0.082852 
0.287807 0.187393 -0.062869 
-0.011982 -0.087283 -0.061299 
-0.141104 0.195662 -0.225165 
-0.048613 0.351511 0.035909 
0.238936 0.212345 0.053783 
-0.161264 -0.013053 -0.190373 
-0.125101 0.259257 0.139554 
0.280381 0.266835 0.031008 
0.200653 0.046994 0.004187 
0.169437 0.31479 0.060771 
0.156638 0.479852 0.085127 
-0.08584 0.409609 -0.086719 
0.17743 0.286765 -0.017379 
-0.238508 0.490034 0.110166 
0.247305 0.297282 0.092309 
-0.271875 0.207375 0.045741 
0.260199 0.097752 0.041539 
0.073562 0.10628 -0.075578 
-0.183586 -0.029277 0.18246 
0.150138 0.444205 -0.039364 
0.201356 0.329427 0.020393 
0.038871 0.359408 -0.210332 
0.203317 0.377829 -0.120287 
0.234434 0.157222 0.104564 
-0.111299 0.365707 0.170646 
-0.027079 0.094771 0.061984 
0.231169 0.501861 -0.073155 
-0.025178 0.196399 0.174755 
0.016213 0.193055 0.010525 
-0.17279 0.285061 -0.203621 
0.054419 0.198894 -0.141832 
-0.038123 0.10875 -0.164429 
-0.208175 0.319031 0.142892 
-0.174112 0.218944 0.078237 
-0.046772 0.036286 0.239124 
0.17901 0.394104 -0.078855 
-0.115419 0.22946 -0.099123 
-0.050943 0.328473 -0.165505 
0.070109 0.330249 0.053234 
0.187005 0.356357 -0.091755 
-0.007517 -0.054373 -0.160522 
0.076303 0.108678 -0.008404 
-0.252331 0.136676 -0.175328 
0.237437 0.100329 -0.106358 
0.028833 -0.110788 -0.026343 
-0.003325 0.432733 -0.027342 
0.223322 0.317339 -0.022568 
0.235363 0.324538 0.099346 
-0.070529 -0.186028 -0.058435 
0.139703 0.143248 -0.016537 
0.105248 0.122725 -0.236298 
0.29221 0.222464 -0.054233 
-0.271546 0.240211 0.057606 
0.235053 -0.069658 -0.094986 
0.106238 0.195585 -0.136874 
0.234951 0.117706 0.080262 
-0.273304 0.365145 -0.077937 
-0.1067 0.284708 0.056551 
0.330218 0.316115 -0.145455 
-0.098225 0.11056 -0.164974 
-0.1396 0.110161 -0.074546 
-0.038233 0.068873 -0.223139 
-0.042978 0.125942 0.157585 
-0.041911 0.191735 -0.133107 
-0.050462 0.022546 -0.147772 
0.226492 0.273648 0.046214 
0.35368 0.401979 -0.093241 
0.056992 0.384209 -0.081379 
-0.046434 0.176838 -0.105419 
-0.290338 0.324755 -0.147966 
0.057102 0.339017 -0.064672 
-0.101047 0.285577 -0.065288 
-0.311507 0.170972 0.083974 
0.154065 0.080858 0.029887 
0.086255 -0.158531 -0.121038 
0.054499 0.007455 -0.160371 
0.233745 0.219246 -0.087692 
-0.16281 0.285086 0.229191 
-0.251229 0.231487 -0.105357 
-0.244919 0.152265 0.134678 
-0.239944 0.380398 -0.077136 
0.083991 0.264627 -0.043462 
0.293152 0.047556 -0.161539 
0.176301 0.378141 0.108781 
0.136293 0.319392 0.078597 
0.189085 0.16925 -0.231544 
-0.299838 0.240539 -0.057804 
0.287775 0.170737 -0.050535 
-0.150561 0.272262 0.084305 
0.197158 0.384329 0.19324 
0.012672 -0.209386 0.043777 
0.021716 -0.17308 -0.007597 
0.240711 -0.058248 0.016521 
-0.073658 -0.035902 -0.008828 
-0.262124 0.188885 0.123914 
0.177396 0.010214 -0.062944 
0.022843 0.028419 -0.101431 
0.058906 -0.273132 0.121796 
-0.291257 0.234909 -0.106376 
-0.013786 -0.196116 -0.0555 
0.135377 0.37847 -0.205004 
0.005483 -0.244164 0.034559 
-0.199338 0.342169 -0.002444 
0.073705 0.133508 -0.170443 
-0.136951 0.259704 0.009361 
-0.068825 -0.223774 -0.042641 
-0.100031 0.254254 0.122926 
-0.043049 0.10238 -0.098728 
-0.283714 -0.005607 0.106922 
0.204086 0.319862 -0.023491 
-0.244114 0.241981 0.031696 
0.101771 0.343878 -0.16565 
0.006295 -0.13932 -0.025361 
-0.289033 0.169901 -0.172686 
-0.147363 0.43644 -0.047068 
-0.234361 0.190196 0.126893 
-0.225394 -0.067093 0.104384 
-0.052403 0.060071 0.149187 
-0.291854 0.213642 -0.040197 
-0.302332 0.307795 0.080714 
0.18307 0.279218 -0.008264 
0.101751 0.198332 -0.24732 
-0.270274 0.290879 -0.015288 
0.054307 0.271022 0.091256 
-0.04387 0.245601 0.184771 
-0.209688 0.118468 -0.015498 
-0.084933 -0.048368 -0.102143 
0.119038 0.274692 0.159528 
-0.105404 0.266597 -0.070859 
-0.258291 0.228345 0.217612 
0.171278 0.387431 -0.004981 
0.216222 0.129061 0.019216 
-0.248841 0.359253 0.206148 
-0.059809 -0.017982 -0.116369 
0.113205 0.0194 0.000896 
0.213722 0.120566 -0.172776 
0.191687 0.119423 -0.047697 
-0.013806 0.137675 -0.239199 
-0.131856 0.059362 0.09586 
-0.195393 0.248617 -0.075748 
-0.370372 0.212567 0.119388 
-0.15259 0.413343 0.012155 
0.286936 0.199006 -0.076834 
0.189357 0.079857 -0.15004 
-0.054192 0.027409 -0.080248 
-0.023075 0.411555 -0.095831 
0.118652 0.227523 0.140876 
-0.001237 -0.198653 0.00649 
0.300974 0.321314 -0.178722 
0.021574 0.048995 0.146434 
-0.122794 -0.032794 -0.083992 
0.225912 0.28984 0.146423 
-0.118371 0.160189 -0.045207 
-0.100889 0.40618 -0.065439 
0.212432 0.043932 0.091573 
-0.099211 0.099242 -0.092891 
0.218699 0.409782 0.165838 
0.182722 0.138127 -0.150426 
-0.105743 0.369189 -0.020892 
0.050048 0.230509 0.182703 
-0.127645 0.265959 0.027561 
0.092855 0.292643 0.224308 
-0.182063 0.238993 0.164485 
0.178927 0.242768 -0.007775 
0.316751 0.178828 0.140693 
-0.169431 0.302689 0.146126 
0.136091 -0.023053 0.070624 
-0.24036 0.293996 -0.118128 
0.146085 0.274875 0.006968 
0.368207 0.098747 -0.01883 
0.07551 0.380216 -0.018441 
-0.09221 0.106281 -0.057022 
0.29663 0.019351 -0.038844 
0.047861 0.203149 -0.149729 
0.072835 0.298439 0.122101 
-0.256342 0.377255 0.005831 
0.036704 -0.042797 0.017187 
-0.330906 0.039253 0.006694 
-0.10669 -0.070228 0.123501 
-0.085968 0.297749 -0.106392 
-0.199928 -0.141323 -0.002484 
0.179645 0.350899 0.109145 
0.272944 0.159805 0.074317 
0.275086 0.160941 -0.001176 
-0.180566 0.130234 -0.009141 
-0.130002 0.121145 -0.22945 
-0.053259 -0.144504 0.092847 
0.150943 0.367008 -0.015441 
0.207627 0.321424 -0.212004 
0.121639 0.127522 0.140062 
0.100226 0.339152 -0.009972 
-0.309048 0.248638 0.142547 
0.126768 0.221643 -0.005157 
-0.24146 0.069247 0.214585 
-0.24777 0.347535 0.052544 
-0.060857 0.228567 -0.0589 
-0.150689 0.135398 0.233021 
0.172584 0.386511 0.075592 
0.206327 0.070373 -0.079275 
0.060045 0.371138 0.0401 
-0.053966 0.038613 -0.029053 
-0.020256 -0.135301 -0.197918 
-0.26821 0.33735 0.079363 
-0.237712 0.312215 0.048692 
-0.151106 -0.074439 -0.160012 
-0.268668 0.132529 -0.078405 
0.24914 0.236068 -0.127334 
-0.120881 0.236025 -0.158605 
-0.077021 0.161714 -0.069658 
-0.333666 0.029102 0.009002 
0.255755 0.11572 -0.040869 
0.054139 0.023369 -0.004947 
0.237732 0.317894 0.16903 
0.141819 0.367972 0.104652 
0.075512 0.228146 -0.107134 
-0.111967 -0.046974 0.027034 
0.058368 -0.026518 0.057595 
-0.066252 0.380746 -0.149845 
0.2819 0.229259 0.020731 
0.237103 0.289599 -0.003579 
0.288608 0.40743 0.120211 
0.15529 0.399135 0.087198 
0.176634 0.267759 -0.138458 
-0.089101 0.324369 -0.154738 
0.13538 0.292298 0.032939 
-0.213073 0.322073 -0.197728 
-0.035923 0.040362 -0.15078 
-0.10199 0.331496 0.028148 
-0.08421 -0.058389 -0.163939 
0.020401 0.125304 0.170179 
0.205934 0.173526 0.117294 
-0.019745 0.343677 0.158048 
[...]
POINT_DATA 1000
SCALARS alpha float
LOOKUP_TABLE alpha
1.4770235271137617
2.3204726069715496
1.7296617329457145
1.1740017100495082
1.590584669608256
1.300755163264021
2.141112100669134
2.1318644571872607
2.070066327542819
2.243260167547371
2.3515781861789034
2.1326844551556583
1.4099529619032154
1.8145921309718385
2.073838030961761
0.8138754311555015
1.0734115741561285
1.8946801908053834
2.000893113389262
1.3119811676041662
1.8131142488313472
1.8721275247979565
2.0064429971814848
2.1900052659708713
1.6874872892681991
0.8332789748245507
2.0747335318800717
1.2432962713330724
1.658125249539013
0.8025201506054825
0.838739785120845
1.5994751757465935
1.6875286830638965
1.376280423879237
1.8758407912062793
1.9635190583125977
0.9555887610537429
1.556103002930408
1.2221042931778416
0.8314308447462259
1.9246007631491322
2.3552830065891053
1.2510580063028283
1.014677672563532
1.0410623407478914
2.3421808571960803
2.354283322734783
1.9986159109272332
1.2217911772230194
2.3266381113882564
1.6670585632735244
0.8624294470636787
1.855789023221549
2.2965311943139683
2.2343255823047645
2.0229578739393994
1.2516958331936388
1.8915974686538914
1.8230205529518908
0.8522645260807419
0.8810269832436552
1.4965413514942287
2.156429254500242
2.0684130754712937
2.047633421949523
2.3561897258976043
2.1972422076879887
1.7887931821062026
0.9495565294667414
1.27879076170035
0.7871372133773656
1.8509134556072462
2.113649690598008
0.7864427513850977
1.0515014316950948
2.0039422351149265
1.9061223029840526
1.8008043945383614
2.120118814919951
0.838367508053397
1.6150281671841793
0.9296907432993061
2.0927071531825576
2.1072342809440956
0.7861901573254435
1.703553476846482
1.2414746675187778
1.9505071335406494
2.34846446099189
0.8468181842211817
1.8335777171093657
1.0229612655658795
2.2443492778027565
0.9184759217544468
2.1233166822229337
0.8117136610039577
2.248240442489402
0.9377416386440037
1.4244191585353803
1.7590926506312872
1.5397139588915474
1.7010147163623672
2.2917352867296215
1.6978149163708973
1.7072339419861466
1.3572558365871723
1.026740368893673
1.181227041555574
2.236980654749242
2.0894244460246454
1.0634224009206896
1.9223598476843746
2.2591833262652434
0.794777465678116
1.7200781734329962
2.2238765890423067
1.4358736256755988
1.367882537813833
2.3111656710663406
1.0594349350852188
1.8456364945544468
0.7929715194374001
0.7868017807603459
0.905074546230508
1.4626668689420852
1.7475310681089362
2.320664215263181
1.6990368047575342
1.9318130285749446
0.8844960626058027
0.8848143599701802
1.048372015518555
1.1565168644917176
2.3506218746696668
1.2645198446430603
1.6892215483491866
0.8826723243035696
1.8433793839039132
0.7858887131676522
2.341290559923721
1.519920056716201
1.786980229948007
1.4425036225617254
1.5600823599130536
2.0865076894224623
0.9541414837665194
1.6735794578124144
0.8579057252708564
0.7862756917824358
1.186954186407085
1.8095778727090035
2.320988230681454
2.3241373208174827
1.9495693179483888
2.175114618292176
2.3171535575633864
0.9194799199637744
0.7854236853524741
2.3516745088675637
2.1882158511672714
1.2442460822295216
1.8335057411750222
1.651730723928476
2.1447304852417393
1.5758313080900208
2.302462596180765
0.8028301448067156
0.9663446031147291
1.3497906185462663
2.038405467530988
2.0187827080233984
2.06045485263688
1.8458303861631777
1.5845098116763738
1.689220435995457
1.240320638391484
1.2232407456907857
0.8431114093329396
1.0232932528281897
1.2439906420771303
0.8422716564231868
1.123571836188197
1.8566381065038462
2.0196482927377692
2.128451093981509
1.7831971563049729
1.6057968553100732
1.3042997469841133
0.8578330776580473
1.5833250318723189
0.8025199521097516
1.1642110754762098
2.1712724022372987
0.7900659507077124
0.8478324956477209
1.706824723466124
0.8325444161068579
2.0113284753743077
1.319233363403439
0.8124994228929386
2.2481567146895594
2.3000271875697598
2.275977683535127
2.3557970701055635
1.869294173410414
2.2299022345609707
1.8395774329578047
2.33736040510581
2.061569792298218
2.241079849882449
1.2259877373198382
2.3040911443084364
0.8042186052365641
1.6830590980391245
1.7641683368310288
2.355028771751965
1.3616307467743258
1.6932182158890252
2.1098426229520544
0.9457248558153577
1.501757351454487
1.0464177808696782
1.9616899983200855
1.7611117285224924
0.7953257140662001
1.3870001006262007
2.2091089918060574
1.6592087080344622
2.2929423057793517
1.2712333442949324
0.9416948095489363
1.4248052605992407
0.7854361365340827
0.9664979528930214
1.366821555118721
2.306103336886242
2.1799730888654123
1.185573117181752
1.497605930216152
1.469826242626005
0.7905910008833819
2.3405305296908328
1.2844465325844316
2.022923791918519
2.356193980829915
1.6795840364809647
2.009532188797812
1.3046166785098785
1.8350967269611977
1.8052304024832606
1.6313669759106977
0.8091995175463815
1.9119586372878592
1.7163792314540325
2.0443694581063716
2.199999123163808
1.2845611573702187
2.2822364723386537
1.3570962067684704
2.042094829866213
2.250576672096661
1.1690226496371396
1.567361076853109
2.3463728099676042
2.35557810545343
1.7818140886440426
0.7865156378247048
2.004613132693937
0.7889669642109616
1.0834372059257522
0.8487527020950053
0.8080637436962043
1.4376512177331553
2.354238115377872
2.109415093962129
1.3526003956991075
2.286045741151589
1.1615759300461532
0.8095067680444552
2.192364052065713
0.8048434810710796
1.827216992744604
2.158652563377593
1.46781045965794
0.9507849236889132
0.8226617460683902
2.151695269901606
2.291070520802065
1.9936219787860114
0.9407964442932606
0.8076378768134741
1.0108721543757992
2.212901900130857
2.1476804748012133
2.1240879291507935
2.186622144240068
2.246590694843142
0.8028344048001073
1.1667802489273462
1.339572783555556
0.7958783409384654
1.381139285976407
1.0347817331223632
1.878629173528794
0.9835185526294012
1.1889521691832412
1.9426789471073227
0.8484169026528887
2.116745772870326
0.7869141638827285
1.8920534766920714
2.1871846066485547
2.1448448241236484
1.2661225608415312
2.3432683603088686
2.1663976542051078
1.6814651469770823
1.5379375943148368
1.1442729168374743
2.320053116557346
2.282066326927886
2.2806034312373757
1.1048632596621972
0.9253415761696104
1.443268454938395
2.25049623713776
1.9546796654087106
2.3555376053159915
2.212534547805211
1.260694676881825
0.787446754095219
0.8020786153382099
1.697495213976461
0.8760331969835179
0.9259937965109551
0.8627816015722046
1.6280501753682892
0.8737612559252173
1.9962474224597584
1.3991198222935965
1.4635701306069167
0.9099527757942746
1.7410463902322066
1.4208432753780509
2.1320955453585664
1.9812397017742969
1.2532678945204156
1.7172763983634607
1.8042178398223974
0.8386917293907953
1.153810956457569
0.7946987814700947
1.7713109729325338
2.0555208419505218
2.2474860812884976
2.212994529742823
1.6590981878560516
2.2634951697338783
1.3559242814652697
2.1636484879478983
1.5440995565583047
1.8074181722301106
1.6163189809068728
2.1594422441678263
1.3784527555232562
1.3606245512866988
0.785419333709168
1.9280931367402425
1.9380534280507675
1.829456804338578
2.3554992867229467
1.6074224588018555
2.043519639254704
1.4778641153457153
0.8566135631405508
1.042763144652363
2.2842124769856533
1.4183885464740593
1.8285179602119814
0.8404448521957402
0.9970974318595588
0.803336282705708
0.8819973146665885
2.3391914356792665
1.132231594994037
0.8381227053138499
2.1009682228470727
1.2351628906436427
2.1740247042165435
2.2307658414309905
1.7499929430834
2.1113745576848317
1.0516269299805574
2.1950682165532673
1.6201682688589454
2.2969204502686162
1.2646744306820383
1.2231765246685056
1.9486966116916955
2.322179536398598
1.1929688742871334
0.7888710906905092
1.6286552833725385
2.091897052462137
1.338494920758656
1.4550609717573415
1.9097789298442653
1.3561000528504854
1.9530327688982452
2.042591923433758
2.290499406282839
1.7115133829582443
0.8350499583565731
2.188507228815621
1.8183991777202355
1.9269340827780745
0.9254855109379101
1.7524494782839464
0.8001241807684584
0.788585978752947
0.9650869715330368
2.325987196477858
0.7934502074702157
1.390497085003551
1.5136243026789402
0.8841883326664107
1.0440857422511014
1.8154346420999148
1.4814482173758563
0.7931243282575476
1.1346533431686783
2.001545065095128
1.7935462910624225
2.2427307278971726
2.239138336055332
2.1909073613762358
2.3515931012257556
2.1510185643216944
1.7935928604628586
1.6861183135163735
1.7294062018701146
2.106723672447344
1.0460028355862894
1.8795610044033457
1.7526968275723573
2.005599939962513
0.8474842987493346
1.5084666215984521
1.999709698382962
1.462601068348386
1.1906600395436029
2.0106065271501286
0.9789204157280392
1.1826511795664179
2.3550811932038336
2.3244869616472683
2.192636432552755
1.2218848450842381
0.9190305620747675
2.1129702207546734
1.3636832083489536
0.9119355833816908
1.7001666595572977
1.0865048708631257
2.022493615368043
0.9748591021728832
2.157287187403677
2.239050702570584
2.3485880778938855
2.2664191901147226
2.328617816025219
0.8361514698820368
0.8286307346270283
2.326362834096745
2.176248642766297
2.3008055311742566
0.853037621602012
2.301681112454046
0.9119836301352381
0.8839427555794169
1.1355373146570036
1.5352794127526979
1.8514608319455355
1.8875227321452535
1.333062322925862
2.2918261287937045
1.2379774910679793
2.3287190039213206
1.342466967387192
0.8786922691889597
2.2171858804077904
1.91878927046139
2.2485027408931604
2.3557109357069943
1.874966041085201
2.324260939234001
2.267355862170583
2.1907899755018123
1.0197751937401183
2.136401785376239
0.8774386642286944
0.8335361930583587
0.957912101273128
2.338350494449658
1.8991804036147877
1.2372470529116542
2.2506306191356065
2.2433217643923156
1.4644148777670207
0.8454118283384938
1.7082088597789382
1.3675516995221595
2.3139516602531187
1.6022153015434557
2.2384962057756472
2.298181402941306
0.7938680315874983
0.8953511693366396
1.876922137592228
2.276853923474579
2.2891717257717272
1.0178863312781
0.9485914056557381
1.7186898849017958
1.2172908325659024
2.2888793530408473
1.8061475500535442
2.3560659601615033
2.2870491711307914
0.8021093406070107
2.2710709135285305
1.644533958781761
2.3203684780912828
1.631783052874048
2.2954411805727823
0.9366906401394255
1.2768620224647411
0.7859803619598866
2.209086695573583
0.7879774002179825
2.289315960466784
1.991847160395905
1.2934135177289883
2.169072041546537
1.8846039895193538
1.822838269268504
2.2681978341346167
1.8944036576226155
1.5657489004932634
0.9644296129436475
0.7883514577832638
2.3536116901511015
2.1192558802346304
0.7860370622465327
1.4793227142634466
1.8013835856969367
2.2347608664953
2.1795763502028747
1.5438732792800645
2.3043558536162694
1.4566778481978897
1.4193509248552678
1.732360715374718
2.3265104578862457
0.800830786976908
2.090755895716315
1.9270869292113877
1.0378518317617007
2.3550980277041638
1.4132607101770163
1.8704996869466692
2.354018073339024
1.5762953805870854
0.9398344436570639
0.8553334233940879
0.9036220799497947
2.0938873319926885
1.940566039168208
0.8857260745001057
0.7913293790428501
1.029963092011592
2.2355970684724498
2.259279122268274
0.789842351105665
2.186426977356208
1.9596715724637648
1.4481902472038646
2.261672032108324
2.0524234749079064
1.545079456078126
1.5361310734770401
1.8167090756176771
2.075053091076656
2.2999296299746503
1.372894351324275
2.249708722844018
1.564604737468532
1.6644166520552912
0.7956028930555485
1.6595326986818804
0.9580571785172234
2.0606758004300745
1.8050172655696075
1.6939880503858518
0.7854487119447416
2.3561137112434434
1.7279492283798077
2.18216305826826
1.6944783560415428
1.5126016065472332
2.3531368968376065
1.0718176540021827
1.8796776298846531
1.658868734848898
1.7144687708623894
0.8212375696210242
2.1301137692150003
1.2969733445573994
2.3005599799800898
0.8421639989724851
1.952998022670816
0.8104028985745407
2.1945768091665196
0.8167730793768319
2.2344505115917337
2.2599102561668474
1.6135549529426043
2.1244599888416924
2.3005346656782626
1.9547168634503638
1.5574797115887877
1.6184250077707936
2.163327767497354
1.0173480291823858
0.7856939377957339
1.0172961732029522
1.2789548387462075
0.8912667857432527
1.3678454888748977
0.8164893358278652
1.150398877124351
2.0200835727498276
2.3492217006919094
2.0538073391969287
1.9202037041459146
0.8132192816462848
1.7076334165999612
1.1793107228539428
1.2542299118338245
1.4976322602860892
1.5518376017001057
1.5218631781688485
2.063110366478261
1.0306727248779854
0.7862589078455575
2.3022549711925793
2.197953292323722
0.7904801413323892
0.9642183767504382
2.094273299540516
2.281809941326122
0.7922806918348869
2.3095310822541086
1.7498035030617967
2.2697875807187198
2.224881391583011
1.8375588795926878
1.8642297969495056
0.8688035297667962
1.9763351121157149
1.6873871472957571
0.8774532307236698
2.3395421023742338
1.8230233450043392
1.5091189032156933
0.92050296618752
2.3546883763845603
2.299068958839511
1.3440946718004319
2.1967565095582233
2.191346868674304
1.0001159303077694
1.3718650354467512
1.64792817278184
0.7878804626526461
2.3462163074307667
2.143742983422532
2.2200450319825142
1.2993522861882552
1.838057302965367
1.4293820642267463
1.404377738470624
1.650306522949715
2.18085057253556
0.7854051585081337
1.6591065981511939
2.354588377351838
2.1766364628954022
1.659078363983397
1.8245590337384365
0.9762942158691353
1.5664776085522563
2.3540570219071824
2.32176592776602
0.8975085571773156
1.170691378829249
1.1524964612803361
1.8459949557683748
2.0743265947697673
1.8510057005226739
1.614729904572083
1.266141092485998
1.7153547048808258
2.0654333604741795
1.3278643936640029
1.4593228580993467
1.9983131178870015
1.3860434883374682
1.190099032532473
0.9036621234250419
2.2813851477554534
2.2363444502826617
2.348516973058582
1.4035171723186097
2.2819957338113595
1.6189251720989604
2.230887237953977
1.5717159346165814
1.4054982021711249
1.8940181549533481
2.3560100098666017
1.869082593995125
1.2837249770049148
1.0350367888554506
0.8022545274099205
1.2022920226862144
1.1588992180116438
1.6532690093958162
2.2022644588260847
2.283141109883947
0.7890362365254312
1.2781197395145996
1.3926492737360487
2.3561912466354156
1.1594828116430953
1.2921273903309036
1.430894700627407
1.99974567547326
0.8385473105453589
2.063856121022125
2.2007483787736137
0.8363029698673765
1.1564205808928383
1.3526501586721624
2.2480349624897182
0.8165919939967613
2.0183207099000646
0.9671331349682334
1.7950835716627929
1.6042883885606303
1.8341740911218545
2.0931122094261196
1.5615120736523864
2.0962916735108608
1.3372562118227453
0.8280157664998306
2.2991757093508385
2.001616804235228
2.3451186189096562
2.208623530662535
0.8413919297855981
1.3423425403010119
0.9418342569949792
1.768067681813929
1.4083173046193873
2.132856046617952
2.1273643327631793
0.9697251050247571
0.911508872399466
1.0451819921723773
0.998154342217811
1.0301839534651078
2.3538616732409956
2.3513030100280763
1.8113093808854215
1.5195988559932123
2.3560722185716534
0.82354006079758
1.7384883742171915
1.8144803192044152
1.307221617826093
1.8796641700446917
1.243401763198905
0.7929783617481424
1.6221829550181008
1.055272247060523
1.2211205212318768
2.3554242630166895
1.6654736859788535
1.7660915907915349
0.8719148926567121
2.248898602781479
0.7854332310753329
1.9272480934654117
1.2325594338995518
1.706328641043727
1.254428645063997
2.1730775650568197
1.719491202678512
0.8219721898738858
0.7872682744983298
1.0084586989920215
0.8497326391858931
1.3425581765361314
2.085367203696141
2.325199132782857
2.337326932645571
2.252222542956039
2.060881953404753
1.793056576482463
1.441697109815626
2.302843648570188
2.0874905973366853
1.1882100460777114
1.9434925618298173
1.2158362848811688
1.5529114719650932
2.320982170345689
2.0601024219858237
1.2878134083303012
2.2638021953070875
1.9602137856207442
2.0687775170279523
2.3357737904916456
1.1848434758952158
2.003375418062478
2.0327998259304407
1.680459173974323
2.3128976948655566
1.335785656582933
2.1362288635579394
2.163946439400736
1.4086210081929762
1.0192165612189432
2.1414370679053496
1.7276830715272538
2.3396023308924896
2.299304263397024
2.3173764985173686
1.884009095451566
2.31206134239095
1.194218938008084
0.9796101423366078
1.447873312362489
1.7170542086264307
1.622478193960215
1.5860076215227925
0.9384644373274018
1.6496480703113394
0.8406273162999559
2.1832203293184707
0.8884776665803636
2.2197326195888554
2.272283765286299
1.4240691169699007
2.351994704801761
0.8440263520724953
1.5790279410633732
2.0473727334731078
0.8191479845386179
1.426207668797737
2.309291227373549
1.6647781515998945
2.1351772972955665
2.3496690661055872
1.5090790576674469
1.3575308045527215
2.1203458044989127
1.9515633816793345
0.8143453278216
2.3528129375655125
1.0702630315553636
0.8734000293621546
0.9355676904052843
0.8796694844625006
1.2916161568320161
2.3439916615908563
2.2181253585366965
1.3077632301970934
1.2577170469263568
0.8084415294054207
1.4921868913384098
1.502527394282903
1.1463758207841113
1.0094511751459163
0.7863790013942838
0.8835142713969998
1.1411588265469264
2.356063907105216
1.2037969111728575
1.8848012744838625
0.9387851490610617
2.0529778742114964
1.4494113200374295
1.4736127547884585
2.3354120960979086
2.3416060302080544
1.5301041669339446
1.023186482353665
1.3517607694159774
1.0648549768702344
1.7011174361941372
2.3559259260136693
2.2672341078980005
1.4319269130045045
1.3325497434277545
1.6151256174698956
1.811358228259226
1.2370981529252827
2.0910941336068616
1.48162343913645
1.7325235744100702
0.9861156084423125
2.354509696274885
0.8834180720490108
0.8261819730715434
1.8417439181497814
1.8253813056093149
2.289986870563264
2.3222523124699057
1.15422952899012
1.050740636322438
0.7898065168007153
1.8563014994840472
1.0089148593803103
1.274121173293897
1.232367830243332
1.2133816632710788
1.7974931497749682
1.7388138784399152
0.8654648889917387
0.7854434298234964
2.280456741507111
1.2786994628100647
1.5020052782941788
0.8008716568774767
2.355001637397605
1.476631281556373
1.6984456676172437
1.853193022156715
1.2463015313411523
1.5660220077295324
1.6916673143594694
2.145810457807191
1.1290414317513497
1.3859509617246129
1.2237248425026084
0.8626789908900953
2.326636982222081
1.7378105751726527
1.6950252786434912
1.0423175625462275
1.9804651764319234
1.2066221707224758
0.8051632754071968
2.161750561057234
1.878308499245752
1.727687623249024
2.351188404349376
2.300606911348229
1.6622911791878705
0.8090871057014318
1.6611363328063684
0.901728288460519
1.8600846854495314
2.3545488181930065
0.9698886412942621
2.0989520311643464
1.2007593270689696
1.6659573475078306
2.0591790962386054
0.8257987260858761
2.1018660878801083
2.308783001728375
1.0588307017152874
1.1408699605322656
0.9045997316908341
2.339654206800426
2.2544331025031967
0.9334629423301242
1.870712768654994
2.328009242323587
1.590927511038019
2.2474606228991107
2.3527962325708818
1.5526004281783736
1.6595599096536513
1.674985604068879
2.1521201574662445
2.2621379730283957
SCALARS beta float
LOOKUP_TABLE beta
2.768853129575025
1.942165907174079
2.9483361895190336
2.4161346294183117
0.31144354738750646
2.789668425509201
0.818393994699884
2.435142089418818
0.8603561104957785
2.219881611093315
1.6578204814053763
0.70757030809435
2.6458598218273206
2.879282234215169
0.5829958512699793
1.2639457164844679
1.8101853693783467
2.792702081254236
2.6593330069265155
2.189155828765135
0.4001677726167721
2.6991773982153493
2.5554342197752526
0.9032336899639086
2.9404574859177752
1.2590864577235799
1.2589420465990686
2.775119514950008
0.4219428878848755
1.8114097658461914
1.1629178897957144
1.7503273410415046
1.3072434596869384
2.43269681878011
0.38495900527996635
2.6551645606457406
2.3370110820720007
2.850930047821923
0.7458941668876855
1.7905593883407847
2.6043705834628637
1.6207678526701201
2.6199349387297564
0.8018953534050928
0.7565497401328787
1.3613168523876913
1.622003835709965
2.634399715577586
2.740036880795091
1.8785174821099562
0.6639377392346668
1.2286340648469927
2.69653586879841
2.0117797280340852
1.03667714868541
2.573878380453647
0.5541149739226319
2.6573720051944036
2.6916740757736317
1.0650248120181365
1.9466757723369903
2.871972294213238
2.4137164986991584
2.3485374903305356