# vtk DataFile Version 4.0 
Unicorn heart vtk output
ASCII
DATASET POLYDATA

POINTS 1000 float 
0.227974 0.256616 -0.012778 
-0.266019 0.095897 -0.082545 
0.114589 0.086325 -0.06898 
0.125421 0.312631 -0.183383 
0.28567 0.22108 0.089159 
0.15849 0.323818 -0.113074 
-0.026115 -0.200774 0.047175 
-0.015632 -0.216048 -0.053523 
0.163451 0.43852 -0.133382 
0.005655 -0.199059 -0.04616 
-0.017763 0.053633 -0.003883 
-0.366969 0.142657 -0.064971 
0.130305 0.311626 -0.149426 
0.052346 0.011464 -0.14344 
-0.276167 0.107785 0.109753 
0.077891 0.214137 0.019589 
0.057328 0.038948 -0.212571 
0.118988 -0.00807 -0.099992 
0.075198 -0.029877 -0.092838 
0.034646 0.183021 -0.227297 
-0.159988 0.074593 0.107758 
0.003295 0.16648 -0.142831 
0.002876 -0.050075 -0.132447 
0.245658 0.198986 0.022845 
0.388308 0.261831 -0.11672 
-0.133163 0.409527 -0.014492 
0.202154 0.21849 0.06243 
0.386534 0.296829 0.012714 
-0.106635 0.131961 0.117651 
-0.064822 0.327333 -0.069405 
-0.039541 0.328426 0.07379 
0.071724 0.259168 0.004195 
0.193591 0.303381 -0.19244 
0.22212 0.289242 -0.180547 
0.096196 0.008535 0.068532 
0.207361 0.171348 0.173288 
0.221989 0.299439 0.002837 
-0.008603 0.09076 -0.150561 
-0.207475 0.322609 0.159754 
0.137454 0.226736 0.004309 
0.358022 0.11001 -0.00675 
0.171782 0.215714 0.143897 
-0.269529 0.250788 -0.035536 
0.041138 0.281417 0.218904 
0.085283 0.267296 0.120151 
0.191712 0.073001 0.058648 
0.268733 0.168208 0.008727 
-0.163545 0.098583 -0.066471 
0.397306 0.261341 0.084624 
0.181155 0.052854 0.007838 
0.076023 0.07651 0.063379 
-0.103601 0.373854 0.152515 
0.217806 0.249949 0.003304 
0.190793 0.16425 0.00032 
-0.075354 -0.156538 0.070265 
-0.019845 -0.086798 -0.061213 
0.082924 0.285629 0.199707 
0.109018 -0.030409 -0.165763 
-0.190966 0.184809 -0.060924 
0.061211 0.362933 0.19013 
0.138018 0.387955 -0.07611 
0.168355 0.1652 -0.094874 
0.005045 -0.175626 -0.08389 
0.112889 0.266415 0.017415 
0.05803 0.03995 -0.206652 
0.293486 0.149682 0.099667 
0.182459 0.216552 -0.009921 
-0.198202 0.086092 0.217954 
-0.241016 0.268468 -0.003383 
-0.209392 0.256861 0.010479 
-0.206524 0.408128 -0.037101 
0.113118 0.116554 0.030225 
0.153715 0.47272 0.092059 
-0.115843 0.358678 -0.071353 
0.055101 -0.011694 0.058313 
0.154446 0.088316 -0.207629 
-0.09474 -0.001533 0.108586 
-0.023103 0.038861 0.142027 
-0.292525 0.175724 -0.02097 
-0.205857 0.320022 -0.043208 
-0.200118 0.192412 0.243009 
0.176753 0.399917 -0.080693 
0.012002 -0.064677 0.034023 
-0.026364 0.076562 -0.200073 
-0.092344 0.311984 -0.080906 
-0.074981 0.048796 0.127393 
0.266359 0.295262 -0.115946 
-0.019849 -0.031053 -0.088862 
0.108289 -0.204223 0.130237 
-0.169357 0.418286 -0.11025 
-0.096274 0.042948 0.080945 
-0.32505 0.377753 0.072665 
-0.181133 0.154979 0.00239 
0.24673 0.319251 0.090234 
-0.056769 -0.130754 -0.089179 
0.128224 0.191328 0.01075 
0.321269 0.036865 -0.010446 
-0.136298 0.409639 0.10093 
0.121815 0.142244 -0.070497 
-0.157728 0.151887 0.202545 
0.241923 0.257201 -0.030724 
-0.217828 0.248977 0.009939 
-0.218307 0.121794 -0.111911 
-0.032835 0.087004 0.071455 
0.19922 0.246918 0.199028 
0.001388 0.169661 -0.161382 
0.089294 0.31895 -0.096334 
0.091044 -0.074544 -0.167889 
-0.00223 -0.196013 -0.046352 
0.276917 0.283101 0.077209 
0.278867 0.214072 -0.022118 
-0.020822 -0.096324 -0.082021 
-0.138789 0.199638 -0.215234 
-0.043622 0.358156 0.038052 
0.232096 0.20999 0.065761 
-0.160902 -0.011187 -0.188631 
-0.128916 0.257819 0.110004 
0.29809 0.274512 0.049338 
0.206996 0.02867 -0.003896 
0.167309 0.31748 0.06565 
0.15576 0.478065 0.080531 
-0.111606 0.37135 -0.076502 
0.154799 0.226506 -0.027108 
-0.248608 0.43674 0.071455 
0.241405 0.299843 0.107837 
-0.284138 0.202341 0.085834 
0.256271 0.111231 0.04079 
0.072413 0.103347 -0.097804 
-0.182007 -0.031995 0.190774 
0.156927 0.436835 -0.035865 
0.203461 0.342191 0.032159 
0.06734 0.340555 -0.176945 
0.217683 0.362612 -0.091996 
0.235777 0.168781 0.092987 
-0.104154 0.368354 0.178117 
-0.027604 0.093198 0.071209 
0.226378 0.510726 -0.078658 
-0.029357 0.194743 0.162422 
0.012506 0.224404 0.009363 
-0.174665 0.283953 -0.204533 
0.050657 0.198465 -0.158914 
-0.029963 0.118022 -0.111663 
-0.210685 0.317076 0.13315 
-0.175655 0.218337 0.067344 
-0.063704 0.048665 0.207706 
0.170255 0.408438 -0.093977 
-0.111872 0.227876 -0.069104 
-0.049941 0.337962 -0.175377 
0.08526 0.302854 0.051254 
0.184258 0.360121 -0.098185 
-0.019142 -0.059467 -0.174176 
0.09881 0.084337 -0.000473 
-0.251089 0.138514 -0.173152 
0.238504 0.104355 -0.096363 
0.010383 -0.090024 -0.009038 
-0.012839 0.402712 -0.029763 
0.195063 0.268025 -0.000474 
0.245744 0.317041 0.084182 
-0.046456 -0.153427 -0.048877 
0.110791 0.174301 0.017827 
0.119619 0.120918 -0.219625 
0.290082 0.223809 -0.047481 
-0.270576 0.239088 0.067514 
0.234146 -0.064117 -0.089173 
0.110861 0.194685 -0.119295 
0.232711 0.127051 0.069164 
-0.272875 0.356834 -0.074872 
-0.138646 0.256912 0.029242 
0.331537 0.318002 -0.154053 
-0.097574 0.11193 -0.158747 
-0.140421 0.117251 -0.048194 
-0.045365 0.064902 -0.228493 
-0.053175 0.130159 0.135942 
-0.044018 0.191208 -0.140335 
-0.052607 0.022129 -0.154763 
0.223944 0.277908 0.056172 
0.363259 0.387091 -0.071571 
0.073092 0.371347 -0.075428 
-0.047069 0.172659 -0.087802 
-0.293894 0.314192 -0.144678 
0.083736 0.303773 -0.050469 
-0.089164 0.30438 -0.099805 
-0.301998 0.187424 0.052516 
0.150291 0.083934 0.023248 
0.092216 -0.173789 -0.141408 
0.057741 0.008109 -0.154967 
0.239004 0.220758 -0.065621 
-0.173185 0.281223 0.205136 
-0.247917 0.234739 -0.111397 
-0.249474 0.153856 0.114556 
-0.244755 0.405094 -0.082274 
0.079718 0.268676 -0.052018 
0.304362 0.05499 -0.149512 
0.173444 0.381461 0.109914 
0.139049 0.301675 0.057777 
0.195055 0.169347 -0.223895 
-0.299613 0.238488 -0.056147 
0.297666 0.156712 -0.075304 
-0.148247 0.274946 0.094691 
0.192766 0.375596 0.179679 
0.02683 -0.227547 0.057821 
0.031416 -0.159926 -0.000402 
0.227881 -0.039955 0.02347 
-0.038539 0.003887 -0.013527 
-0.274875 0.195993 0.096993 
0.184293 -0.002435 -0.073546 
0.024171 0.036016 -0.07887 
0.042328 -0.250708 0.112787 
-0.289657 0.23693 -0.09999 
0.005574 -0.133211 0.012265 
0.128325 0.380598 -0.210399 
-0.000124 -0.230595 0.024837 
-0.195767 0.31461 -0.005745 
0.08043 0.135753 -0.146355 
-0.115254 0.268802 -0.017567 
-0.092094 -0.245974 -0.04008 
-0.092409 0.260214 0.150756 
-0.041952 0.103374 -0.07981 
-0.280684 0.015173 0.081979 
0.196168 0.344571 -0.048358 
-0.216259 0.247526 0.007809 
0.079294 0.351193 -0.179796 
0.004407 -0.131398 -0.010564 
-0.297901 0.174431 -0.172157 
-0.171891 0.398854 -0.04456 
-0.25392 0.204946 0.050716 
-0.231372 -0.04868 0.091403 
-0.054311 0.061973 0.126266 
-0.289712 0.207915 -0.030202 
-0.300117 0.287985 0.039643 
0.176801 0.261618 -0.025925 
0.074096 0.20066 -0.263736 
-0.281177 0.301564 -0.014151 
0.057089 0.251397 0.049212 
-0.041296 0.248096 0.200874 
-0.203605 0.131726 -0.019122 
-0.087267 -0.053185 -0.107169 
0.11818 0.274292 0.155989 
-0.10603 0.266023 -0.064199 
-0.269177 0.22896 0.187069 
0.138777 0.435736 -0.009989 
0.214663 0.154572 0.013022 
-0.263122 0.348231 0.177197 
-0.056853 -0.014625 -0.107497 
0.100214 0.032905 0.001554 
0.23051 0.126231 -0.13074 
0.190008 0.123936 -0.037815 
-0.010679 0.137304 -0.234968 
-0.13875 0.046232 0.134037 
-0.197688 0.251864 -0.06009 
-0.374344 0.215349 0.102724 
-0.186052 0.368741 0.003153 
0.284341 0.206328 -0.057699 
0.192544 0.083729 -0.132303 
-0.053371 0.035759 -0.039633 
-0.009451 0.405905 -0.092074 
0.118958 0.229061 0.148428 
-0.004142 -0.213467 -0.00197 
0.297507 0.324188 -0.18712 
0.012994 0.053888 0.135003 
-0.117866 -0.023531 -0.075457 
0.224902 0.287057 0.137192 
-0.122565 0.160957 -0.083265 
-0.106412 0.397439 -0.063113 
0.194135 0.071395 0.063535 
-0.096316 0.096212 -0.113889 
0.217008 0.413328 0.167119 
0.206407 0.148609 -0.111525 
-0.128409 0.341354 -0.022412 
0.058192 0.238369 0.192067 
-0.101659 0.282012 0.037121 
0.08964 0.290407 0.219501 
-0.188132 0.237786 0.136645 
0.156311 0.256582 -0.01276 
0.314233 0.173818 0.144622 
-0.156172 0.305914 0.160597 
0.121156 0.003318 0.049916 
-0.241155 0.298726 -0.131356 
0.138176 0.282909 0.004953 
0.371169 0.089868 -0.028833 
0.086136 0.362933 -0.013517 
-0.093795 0.104075 -0.066239 
0.283789 0.002449 -0.057044 
0.053277 0.201843 -0.135451 
0.081119 0.288826 0.108039 
-0.256529 0.361965 0.000355 
0.02883 -0.033409 0.005034 
-0.33091 0.005997 0.031401 
-0.106216 -0.05816 0.098486 
-0.089899 0.289181 -0.096076 
-0.187248 -0.082483 -0.022185 
0.179957 0.346843 0.103635 
0.271805 0.163836 0.069627 
0.269412 0.167206 0.003976 
-0.184163 0.117711 -0.027278 
-0.13156 0.125885 -0.20106 
-0.04747 -0.128678 0.078468 
0.182555 0.326101 -0.007628 
0.214725 0.319266 -0.206535 
0.121865 0.128077 0.143866 
0.086054 0.359575 -0.012803 
-0.316768 0.244686 0.112186 
0.117231 0.215366 0.002114 
-0.255663 0.079034 0.15832 
-0.250107 0.373827 0.083517 
-0.058407 0.2339 -0.078607 
-0.15964 0.14343 0.213092 
0.178117 0.366423 0.06236 
0.199117 0.093367 -0.043979 
0.068345 0.357165 0.037927 
-0.055512 0.033015 -0.04496 
-0.026513 -0.142022 -0.202917 
-0.271781 0.300228 0.027159 
-0.237272 0.315904 0.057843 
-0.143991 -0.060183 -0.154398 
-0.268537 0.137382 -0.079452 
0.257619 0.23802 -0.100631 
-0.122164 0.236789 -0.168421 
-0.077775 0.164437 -0.075953 
-0.330754 0.036705 0.006819 
0.216214 0.159216 -0.016403 
0.066086 0.011321 0.003946 
0.237017 0.320774 0.175806 
0.135488 0.378702 0.112396 
0.071401 0.232301 -0.145242 
-0.098669 -0.036432 0.020598 
0.055678 -0.024437 0.051209 
-0.069121 0.378753 -0.150244 
0.289712 0.231027 0.017431 
0.248474 0.304851 -0.053103 
0.288019 0.401928 0.118549 
0.139741 0.412709 0.089686 
0.180519 0.267593 -0.119596 
-0.090572 0.315931 -0.143013 
0.14131 0.285386 0.026359 
-0.206956 0.301357 -0.166355 
-0.044478 0.039881 -0.168689 
-0.140312 0.285294 0.008279 
-0.098526 -0.076528 -0.185125 
0.017795 0.125883 0.165913 
0.198108 0.173334 0.12263 
-0.060412 0.296223 0.095946 
-0.024468 0.033775 0.054793 
[...]
POINT_DATA 1000
SCALARS alpha float
LOOKUP_TABLE alpha
1.513549863610268
2.314315993191316
1.6875101480163162
1.2670190897946794
1.5229712905933162
1.3274877148370756
2.1910349729490606
0.9854651581261732
2.1242425709911963
2.234565383713714
2.35279070481922
2.11129298084092
1.3887585277711718
1.7212117598897294
1.9696506788865615
0.8541851588588293
1.5751541239941456
1.9696324912192615
1.150936151315631
1.7253236974933175
1.8227057120393666
1.757732479726143
1.9186429556590843
2.076266907407428
1.7126318277959272
0.7971215008537935
1.5090161416207573
1.0958536643298138
1.7242031401675064
0.7853983491530586
0.8178774206205781
1.4856991550466843
1.8236984542619317
1.7107373514366613
2.024801845618575
2.1191301936103533
0.8067997139857663
1.6925681704274618
1.3240709679383136
0.8526608388381095
2.312916386048679
1.777577700199881
1.3416133724092643
0.8818021508310381
1.2143312890893987
2.1258160923789635
2.3560769527092877
2.169490455724819
1.1917760786885938
2.3450564984612896
1.6819528592471593
0.9189995634104441
2.3244573502527595
2.354562979581947
2.292035828499084
2.0319657534840756
1.2868768026926682
1.2477127365505056
1.7588615302449604
0.8438056980455231
0.8808365153297787
1.4697265272836277
2.0424011036181646
2.105805718998587
1.8428626944971547
1.0320275619887271
2.355809922609048
1.3889912695246613
1.051085164921575
1.2482824843524571
0.8019306614925503
1.8106845763130737
2.1457165984522484
0.8017237979181447
2.134101294007821
1.9887333241604765
1.8488985203184976
1.7041853775615092
2.092182211228293
1.0283414456022497
1.4563347220089937
0.9199879358092219
2.0933919415486812
1.8563957583338584
0.80757885934979
1.7276360917218005
1.3420205230982247
1.2711534874796349
2.2830596962142495
0.7858608504994252
1.7567489072853313
0.9686181680310205
2.341854061380385
1.0133339231772154
2.0362351466567747
0.8150824019091598
2.3338295548276746
0.9015176408245941
1.6195604929969671
1.5646362403388692
1.562953289642276
1.7871747068651327
2.036153471937621
1.633258583842888
2.259945076000122
1.3499960442693641
0.9954479173899834
1.918944535433215
2.1659544900917282
1.2354614719518398
2.1721228097337306
2.0091398031255445
1.9736380912089369
0.7930800888582934
1.7925055820109081
2.2732025607076043
1.558107712116465
1.0072791813236703
2.2798402244961613
0.9855252133788669
1.825173343726776
0.8144768384965405
0.808182365655597
0.8830677478497105
1.4345416062353253
1.572541581236406
2.3541784377420365
1.6831703805362548
1.9280648993306726
0.8450067529054935
0.8751654755357481
1.1148311104985598
1.1388438082286458
2.0704077878893754
1.9016598510809926
1.6697116599085686
0.8982716603005045
1.4102580386056294
2.354768853347503
1.8524960005239475
1.8501080646124033
1.6311255543517489
1.3739490980662958
1.5436744388837857
1.7664906659683894
0.9561344133424152
1.5304008188356972
0.9423673447205049
0.7895223691220313
1.180051986788057
1.9830886090974542
2.3433719228970458
2.128084115903113
1.9379019250079061
2.231964237166688
0.7854007540170588
0.7855845445898362
1.2857465221384834
2.333875652435479
2.192544900681872
1.4350918914601518
1.8092394644101797
1.660937804214445
2.1527952542979407
1.5172287662653963
2.0508138002466048
0.8267599007465245
0.922792783332666
1.3246675970102055
1.7908786921248419
1.8293326809783799
2.1693945499176195
1.6937429823659151
1.5862803128872573
1.7316233679356117
1.1364657994828935
0.9788665705652789
0.8455469416081832
1.4123189805386862
1.218020952018916
0.8172673297518416
1.0685116861840638
2.064716713389295
1.9633819636364707
2.166330854349045
1.6850253156386261
1.6465279321674269
1.3921411154617058
0.8556642374731598
1.6337016109265972
0.7921620854947852
1.1871390310905354
1.1093922770345361
0.7931246538869074
1.0307566630878586
1.6201083127958051
1.4934570494063664
2.048490588714613
1.324410738275664
1.1347064644815372
2.2005670376354556
2.279505982736649
2.3250040069246483
2.353550286845292
1.8274461994246136
2.218190906860249
1.842666018151386
2.282754279981026
1.8041834694188268
2.1389736818669958
1.254530542125861
2.2609639525226966
0.7854232326742813
1.6231421579098486
1.9979549922033433
2.35203541535328
1.4120051235361484
1.5988546711381695
2.145836295642023
0.9898545970508369
1.9349296297493066
1.974750684624796
1.9899745820006445
2.046952774449656
0.7875894500419974
1.7847333564525445
2.263870994423572
1.6802922967113645
0.8519747371233393
1.1667626786346696
0.9221102584911134
1.6377461786285967
0.8105500197610098
1.124752407097912
1.3378233898178993
2.353878161402147
2.1806115810205022
1.174813052984181
1.494468190238467
1.648283183769223
0.794795561217842
2.2813510387203606
1.2362221619631268
1.9649035171881204
2.356087114655938
1.7346846682931019
1.9924919359351034
1.3664466820745704
1.94780948138331
1.7509622930771511
1.7050064298207883
0.7874817250682755
1.947065563306406
1.7626333752844505
1.783745085859136
0.8333564056641452
1.337000798940759
2.2968993755954115
1.29097847113074
2.043467122964515
2.2191133166284103
1.3057431187322888
1.5096148561441067
2.293861143561807
2.043802228069723
1.463957389041087
0.8260147352103923
1.7769778883345195
0.7856060317596114
0.833730768953176
0.8298125082329004
1.1805449991928236
1.556309716962637
2.250427937893457
2.323704702692189
1.7621812407502762
2.131708443550361
1.0010518937076622
0.8217794842616795
2.1791719533734115
0.8027471278328224
1.8118842989222272
0.9017847820989922
1.4650167738661988
1.0975978328964182
0.8175525717990502
2.133263031461148
2.1886109675566376
2.009053298451071
1.035665127782768
2.3543473397969703
0.9862001863482388
2.2165756761725373
2.2755069127377676
2.2485277300189512
1.7288493046394113
2.152891645938948
0.7914921122354915
1.20926415249283
1.3016439486968272
0.8002849017516598
1.4392619766834263
1.0043810846419479
1.6979822512436982
0.9794932006655775
1.214391954698898
1.942280263194396
0.8856382314293483
2.0493456560794874
0.7892346180852677
1.8728860753793044
1.0832455330264432
0.9534965975743869
1.2772918493334238
2.264063600802321
2.3545265200736503
1.6216163728838577
1.5735338848650378
1.0795585649519117
2.3277255599367686
2.321406605593274
2.2897464279144004
1.0879635711310882
0.8570627937123702
1.4798999193579248
2.286806572099822
1.9654930524125047
2.3438517884323704
1.1687521982208993
1.3353912495047369
0.8008855587505513
2.262928898037072
1.5110494620684576
1.0052199448880372
0.9317122834461139
1.4228407783476
1.1986214569078804
0.8039929486753173
2.3127762491266632
1.5249353109639174
1.5283787268877904
1.0281298880563858
1.6621483318870192
1.4393792529674392
2.2432858738484227
1.7046249274173588
1.1829939115825483
1.7524690863878452
1.757866225251138
0.8257400451687892
1.1782248344649844
1.0028898402948945
1.7484252739630748
1.9973876489930926
2.354149851341393
2.2288044571967713
1.718925554522942
2.231241553909005
1.348820613455548
2.137910181608828
1.4408007896441903
1.7449563297721293
1.6701669733944056
1.7578190289515034
1.3606306723856814
1.2581859790401788
0.7854901858707708
2.355213175026872
1.7592793401417466
1.6532095755511345
2.324422091365614
1.5541523705937461
1.9721453066859669
1.427404220797201
0.887038058809954
1.0396031437444118
2.2252211474716233
1.6252990734828585
1.7108702691285878
0.7975649391293711
1.056380294266619
0.8759425568032821
0.8572370432246612
2.3490052746041132
1.5753522108135674
0.8557075150285814
2.1054515127872913
1.2190455169649341
2.1166333578796195
2.338970917531533
1.6862137315312387
2.164932037529702
1.1108592351828506
2.232720315809983
1.673646423020539
2.197613727856558
1.2987514193286944
1.103291494911314
2.107476376568358
2.339134602564873
1.3345175092870507
0.7933218698636776
1.565636516867058
1.6775000621876435
1.4295388201798493
1.9095514360882135
1.8676268217266931
1.4212840477429887
2.036451212243871
2.068054431134574
2.0451545435925196
1.7393821957862767
0.8510622005392839
2.215820949976266
1.9327869699069429
1.853884993154225
0.9358936784470592
1.7878189496366774
0.8153951117049384
0.8505854617759027
0.9853602195335077
2.308685843069286
0.7873891152136397
1.428647113250297
1.579352146510894
1.0220962069423656
1.134545026037293
1.8677989486114204
1.5268721598243973
0.8935684114925972
1.1613837153908826
1.8828213951524233
1.7647467171392077
2.2341127676237678
0.8493725211850208
1.2185127613305382
2.354050835479063
2.0145827572597965
1.825497593413929
1.6264795483170698
2.083515053772905
2.141060530293345
0.9871400898780639
2.002051708821321
1.662569176939022
2.0409837984097057
0.867778247310428
1.465938144696702
1.9645487467242273
0.7854285966428451
0.8691100904956903
1.9285376788774888
1.0260734576000397
1.1757749921702993
2.339318178213264
2.279618729135599
0.9516688583110655
1.228279327406422
0.785471046727245
2.2229336987709054
1.4046713399078108
0.818222849497145
1.7624999414353133
1.101770458228196
1.9952144922669999
2.0985335951002577
2.1913307485968194
2.2001804599263495
2.3484317483881405
2.220575004198652
2.3502801106987943
0.786569333015573
1.1581691474898306
0.7935157542862664
2.2010839608621624
2.3497204866154995
0.8476603547551026
2.312000808916403
0.95985811548588
1.2903962704088965
0.9790991756598914
1.4685028349525728
1.5179668744499408
1.726100033083847
1.3341660433200577
2.347260745472553
1.373001271045704
2.3446463545501235
1.355667758800855
0.8528704419747213
2.2685957216345427
1.882796320637726
2.078100549874445
2.3498608578568825
1.7748297425818282
2.353814735916647
2.3451260108935332
2.171715512146542
0.9337635955006115
0.8892381222130545
0.8753737553182277
0.8148461243854899
0.9285703239267896
2.35482033952383
1.878792877241003
1.1149627905175852
2.331589803850762
1.987532607980711
1.5787004520647159
0.79683568246375
1.7206867779165194
0.7882399756258543
2.088896194240866
1.5565086634315102
2.208556567357285
2.1419732863743812
0.7860649877284092
0.8094415906091293
1.909224440826254
2.3540707076085945
1.9167035958979806
0.8514786033708102
1.0647223900128246
1.70986635469575
1.8063655828429248
2.309257650619939
1.7677523859199462
2.1108063814762144
2.286607805081809
1.9221987170460042
2.351453159917891
1.4625092722974855
2.317929317124878
1.7119398082369433
2.2936936676890958
0.9994179279112452
1.2621413390071823
0.8365958262051503
1.1919340898315987
0.9745255826811563
2.2504906009709504
2.1404178897237207
1.464581861214494
2.214613373957891
1.9488723726451473
1.8145703935403448
2.3147885674208153
2.0070216495710294
1.5654590966919086
0.9471580274908127
0.7881704410456746
2.2751129490181623
1.6497380304356142
0.7893450308908491
1.4796148940632963
1.2415700371221212
2.3239120742209667
2.283035499526882
1.5724766223738744
2.285592727682566
1.4274813650005256
1.4148189531215016
1.3689271130632807
2.253827090892125
0.8029620076537697
2.102939626026779
1.9145782762730041
0.9616126063468649
2.355542703733156
1.5453365929714717
1.5247847059050392
2.3555913466175395
1.7455714115234047
0.9567060216337765
0.8174544097653262
0.9187033679268137
2.1747380283846245
1.875121268272341
0.8605138832616149
0.786313707172883
1.0326177136578643
2.233466977043849
2.2948208165324226
1.0388710533865544
2.1756228868320413
1.252499525979409
1.475022035313771
2.28518555572977
1.6865497168765216
1.5872690189583887
1.58351397484153
1.8732926420679454
2.099424355501374
2.299658596379824
1.2598312446860964
0.9330437877203115
1.6598632380727694
1.649183013527842
0.8047732373689167
2.3508801716443055
1.0005860467161318
1.9645500083155114
1.652640897257227
2.062835567512407
0.7859722465731622
2.355752864311362
1.6903762391363268
2.115726258748493
1.6771772484023357
1.5369125287090961
0.8325245320971927
0.9281036979559821
1.8058401453954198
1.7811598808987115
1.750083865463788
2.319050071622063
2.151061378103468
1.1068215682107816
2.206868855194006
0.8746176932094056
2.053803769900183
0.7986633135859408
2.181100045562603
1.1326593685462854
2.2101307486649153
2.2531202554211487
1.6303995901936015
2.1261938809373735
2.3313120067053794
1.3180402757537195
1.467648441478289
1.5806627854661162
2.196631266637617
1.4093868589806071
0.8082377013929504
1.021403630943526
1.2450547703543733
0.8937484875938501
1.389709189665298
0.824758610166078
1.125072295217704
2.0401237003568564
2.239939451303216
1.0391784836977673
1.8635004840500204
0.8566287497945574
1.689639721336562
1.528438379917215
1.4565774265571605
1.4514193654767216
1.7288741962592564
2.236135637779892
1.8508411930579785
0.880250754121696
0.7854285952277138
2.3120329058353857
2.1564336773046557
0.7905227239839027
0.7907076376352654
2.2566211039366886
2.2095780453519995
0.7897068992625365
1.9663657325183008
1.779989412920057
2.277766503400678
2.253383595641173
2.128851906580917
1.79683078563204
0.7896858558399041
1.9801572581131006
1.7409512069798547
0.8685480835657055
2.269717422195067
1.833226716265768
1.7881428994278201
0.8935442550232849
2.355802202509703
2.3108605907325708
1.6767184086673226
2.2987482252510443
2.306033346755994
0.9923560189021556
1.3827862815325902
1.6702096704979068
0.7917339355015155
2.350828122357777
2.142087018851863
1.8602202869961877
0.798129493502348
1.6348896679654399
1.4503059109781085
1.4906337341221985
1.6132581693296226
2.0307652974712918
0.7854089968503999
1.5801216768479351
2.3549778601759175
2.182816283173574
1.7523951483736415
1.4586467293070895
0.8408409238297976
1.3469250428577513
2.347951106294127
1.7661678607678029
0.9358764587797054
1.1173659756761551
1.2536269760207457
1.8717151508022176
2.074194201386989
1.8787527717962058
1.5808771465331612
1.503245287109621
2.1012747552787614
2.107093621022142
1.2346529921543274
1.6799271001820058
1.8747405049903803
1.6706306609999022
1.1172211833193186
1.1323681213542127
2.300914313441562
2.29603903959855
0.8421732322964735
1.4109833421281452
2.3387900110245763
1.7886069790956507
2.1866267516510516
1.5815352170587635
1.4576809652741516
1.9283886062845956
2.276477221094529
1.961284138378926
1.2395452686213737
1.756624993483913
0.7967010916331004
1.1798979552539546
1.8736738594966837
1.722884511843462
1.986417006967812
2.280710468204892
0.793434681434954
1.2066854785791887
1.5919737672621843
2.3282914740192973
1.2022406417977114
1.266834045595299
1.4235445095506056
2.0372644919409164
0.9918331829648406
2.0855598168684604
2.1881264429315985
0.7885675975625058
1.156962481450763
1.267457771406223
2.2633249148422756
2.350477168294024
2.1176255713773737
1.0663889259717263
1.4285421344587381
1.68661580517678
1.8207243553482797
1.2930725321790828
1.520850414643886
2.0906436738773206
1.2988519994290966
0.8814696654356311
2.2853479267704855
1.7970426099675665
2.3446802413478585
2.3325201661469466
0.8320502534156675
1.1149246596501756
1.4406826945307885
1.8008746469708357
1.5931547047622887
2.157145818578018
2.1658338555908694
0.9294473839423747
0.9257624108804247
0.9875662207900816
0.9538376857251525
1.0615535479270939
2.2593165407497557
2.2685718425774235
1.8633128598425106
1.6498567745699826
2.335066522927415
0.8257069497371229
1.3617872827842463
1.7947975107816605
1.3674966763454697
1.8383523308965322
1.2454407397020173
0.7876478951382463
1.5003822359343852
0.8076369863695328
1.2412154614497024
2.3521610979082364
1.719375672425363
1.7652407870269557
0.9661999080520576
2.283910368357949
0.8254266113020392
1.931688989922282
1.601923610387217
1.5544587851715534
1.1863169821645831
2.0933918313355866
1.7104137681851113
1.0889231946351268
0.798854298270698
0.9586107160153747
0.8089889860134366
1.3392562059604658
1.9569039660392067
2.356087449815738
2.248571489412559
2.217708023721876
1.7594600729995729
1.8190489635805012
1.2783643330222094
0.9125435518241104
2.037578334323627
1.2113007685447095
2.0977680365144558
1.2223206846524763
1.6816528251415845
2.275396251693415
1.0866130750592526
1.2155396827646137
2.009568976535025
1.9310578007865724
2.0627066924542983
2.323255796527709
1.2171998106809234
1.9131391043314077
1.6564421077576506
1.7046692849082943
2.32940251031839
1.3949572710056268
2.075524621719675
1.879822741262136
1.5474186885287287
1.0529215177581364
1.7334358881984846
1.599011365525048
2.3557288528438494
2.3220554294626368
2.333303668325049
1.907993578206224
2.3560653929344206
1.1494892525896463
1.0482964104859482
1.2761158633750256
1.742842673530923
1.4232826950551658
1.6294037203565608
0.8953413667700262
1.6503817774581493
0.9320368655456858
2.1879911284582265
1.1113743224811448
2.197166292636758
2.2762523418393292
1.3580316396867829
0.8120335622509567
0.8367462450437518
1.6106503859061818
1.997383637058593
2.35619448921861
0.786515264367947
2.3528327362212056
1.6904445550201737
0.7941725745867613
2.3523609859750416
1.4654953089229696
0.791745212208561
1.976072643235711
1.9865910831096698
0.8134705156055378
2.3319970599507407
1.0728615290587784
0.886029695985913
0.7864748400573212
0.8282138471607665
1.4113258124194201
2.161876477972615
2.2575043892991067
1.3066087002451232
1.4283942694943736
2.2944546872142464
1.445289486494662
1.648712333931358
1.8707656022452153
1.20872770048262
0.880121153894611
0.8752638821500085
1.0611189726054377
2.3364679323165554
1.459147629550542
1.5112409861334328
2.2471222738218835
2.3389830233988236
1.312886145549794
1.5090447869817467
2.340399944762942
0.9034123593068697
1.7150280052365205
1.0321893828898003
1.4040943169045597
1.2658967046473275
1.5677215879990767
2.3527397386787072
2.2806329134994754
1.315257191689323
0.9612500713938525
1.5622705464358049
1.823125321476179
0.8776474126644328
2.0941533926520592
1.573408051690617
1.8078144652161467
0.990333399639418
0.787401891362086
1.381720178429902
1.350075929825493
1.7607747182422047
1.7917281534067673
2.309960419745852
2.3319716011413476
1.1559605543632463
1.5647379237164112
0.8166974940482881
1.9789349892687123
1.0237863393094984
1.214935627735107
1.0764143049733965
0.8272838350409486
1.7532707940118355
1.6737454419180264
0.8031781225465884
0.7855070739457137
2.10611747877269
1.2610734616751742
1.4488739070400818
0.8002188038472379
2.348886763527294
1.4681352326407258
1.779497709784691
1.9314111043459397
2.128132989805178
1.5547305888617753
1.8142778050338262
2.076642663417344
1.180215205784401
1.3444831868458567
1.22246860981559
2.334869786188042
2.31774149523291
1.7865128046389203
1.6655540285898034
1.228985155109953
1.9863456381032838
1.2903430812397445
2.267601239766993
2.1188932313628994
1.9829320003599342
1.7982916245065785
2.3547175475709783
2.288768452047866
1.6735232019739263
2.3548346642115883
1.7571649173082542
0.88677935350968
2.2331481625109744
2.3561322861799763
0.961571863227317
2.0883289185548954
1.0007828943069164
1.46753335969102
2.0912115111715197
1.1549284001532831
2.1486805737002874
2.321306875852896
1.3251299467543014
0.8689822564885405
0.8710339722538742
2.2850571405078832
1.9054019793727575
0.9327073060283827
1.5781752912743827
2.351749459503798
1.6045738955717976
2.207985891481715
0.7854518405877042
1.696693392624306
1.6329513882244278
1.5691902326457714
2.3292114010536897
2.34075157175653
SCALARS beta float
LOOKUP_TABLE beta
2.609036061512272
1.2120904574902331
3.020636684338924
2.7966530898647797
0.4658731494264301
2.7054951890604073
1.0252553635616426
0.7546599345749831
0.6775195747146874
2.2434635769212488
1.6424168361150944
0.6440687467849682
2.3065168567381695
2.8480471168726416
0.6033180059014669
1.0951819213810354
2.7733879754490594
2.6856750866514623
0.4721058091816746
0.21392492227661647
0.27792375490094834
2.821636742401729
2.6059349087651364
0.5920613087096479
2.726922369444679
1.4149989881591325
2.9284230003106235
2.5801016098101663
0.22031454810595918
1.5699991829095419
1.2491545240263693
1.758903968070687
1.2604284064450162
0.23837760600888697
0.7053852934242555
0.682082079922223
1.806362999300165
2.6421185128764275
0.42661053107904207
1.8006902556785518
1.849369626905193
0.21173115189409805
2.594852208037048
1.1010900967955481
0.412948526900189
0.8050977592262613
1.5828621325896024
2.386477773775366
2.7312644112291866
1.7327066138327856
0.1441741816539305
0.9351509713662455
1.6942918034462497
1.6447470542391394
1.1466460621268193
2.57528141421196
0.2970608404695813
0.3475195491581905
2.8641534576037144
1.0990505091592901
1.9740837605940722
3.0388684481279538
2.602818868634839
2.050791408926654