# vtk DataFile Version 4.0 
Unicorn heart vtk output
ASCII
DATASET POLYDATA

POINTS 1000 float 
0.242971 0.259014 -0.045005 
-0.264899 0.092972 -0.081859 
0.104029 0.074002 -0.122944 
0.081033 0.338639 -0.237832 
0.275321 0.219824 0.096455 
0.137057 0.330761 -0.156277 
-0.053749 -0.23171 0.076812 
-0.013354 -0.210192 -0.04783 
0.151306 0.426226 -0.116932 
0.005331 -0.223104 -0.064926 
-0.05153 0.025951 -0.007178 
-0.369732 0.130775 -0.051289 
0.116927 0.313262 -0.160914 
0.043663 0.007731 -0.167427 
-0.2628 0.10094 0.132315 
0.062264 0.249921 0.031305 
0.020695 0.040935 -0.240964 
0.118547 -0.029016 -0.154475 
0.074376 -0.032823 -0.099266 
0.017332 0.188806 -0.252086 
-0.144359 0.059452 0.164939 
-0.005675 0.161357 -0.169562 
-0.019918 -0.066624 -0.171454 
0.231609 0.17825 0.042695 
0.382184 0.259858 -0.133443 
-0.102502 0.438127 0.003234 
0.183139 0.210556 0.081553 
0.374573 0.311605 -0.027408 
-0.094605 0.127985 0.153075 
-0.059552 0.340641 -0.069019 
-0.015777 0.372267 0.094696 
0.121277 0.260207 -0.006422 
0.137322 0.301074 -0.177894 
0.200365 0.293904 -0.207501 
0.096483 0.008572 0.066259 
0.207183 0.160211 0.17037 
0.234058 0.336155 -0.025003 
-0.015487 0.089804 -0.163767 
-0.17389 0.339339 0.209172 
0.157714 0.239642 -0.004154 
0.368327 0.082181 -0.042814 
0.16928 0.21103 0.153701 
-0.265742 0.254836 -0.052439 
0.046733 0.287331 0.225372 
0.096897 0.28041 0.143119 
0.203647 0.053109 0.071615 
0.284663 0.14961 0.002712 
-0.163286 0.095579 -0.070371 
0.385618 0.276285 0.048481 
0.209809 0.012544 -0.005067 
0.064356 0.070565 0.105617 
-0.053224 0.423203 0.190133 
0.240968 0.240949 -0.009005 
0.187321 0.131273 -0.011626 
-0.086342 -0.174142 0.080995 
-0.028907 -0.101604 -0.088898 
0.087924 0.294574 0.224133 
0.103788 -0.03292 -0.170209 
-0.187275 0.180206 -0.08959 
0.066022 0.386811 0.196869 
0.085954 0.426136 -0.101336 
0.154861 0.167891 -0.154563 
0.003034 -0.204775 -0.11751 
0.152941 0.241486 -0.014654 
0.038912 0.026378 -0.244289 
0.289261 0.143552 0.096604 
0.19306 0.195149 -0.022066 
-0.180692 0.083799 0.230323 
-0.24993 0.274776 0.004022 
-0.222729 0.265733 0.035579 
-0.201154 0.422352 -0.03407 
0.110888 0.105163 0.074959 
0.14057 0.457488 0.061278 
-0.086422 0.392571 -0.075007 
0.053854 -0.005694 0.051053 
0.111526 0.072061 -0.242791 
-0.082875 -0.015116 0.154498 
-0.019814 0.032353 0.173012 
-0.290607 0.165704 -0.008899 
-0.18391 0.337064 -0.056511 
-0.182879 0.191812 0.252956 
0.147225 0.434666 -0.11367 
0.021692 -0.107977 0.093406 
-0.053877 0.058524 -0.233164 
-0.070544 0.34632 -0.083118 
-0.072345 0.047175 0.143917 
0.225775 0.322846 -0.208435 
-0.021347 -0.037204 -0.101232 
0.103043 -0.197014 0.130913 
-0.165629 0.424816 -0.110442 
-0.08712 0.034703 0.140722 
-0.303176 0.425494 0.129672 
-0.215914 0.122166 0.021623 
0.232384 0.323985 0.097807 
-0.075937 -0.149735 -0.117977 
0.143387 0.238831 -0.005903 
0.309266 -0.015695 -0.032748 
-0.104864 0.439434 0.12623 
0.10828 0.150996 -0.145522 
-0.128661 0.149167 0.235045 
0.249775 0.256866 -0.050597 
-0.247333 0.236958 0.064358 
-0.220897 0.102318 -0.125151 
-0.031238 0.083662 0.116588 
0.207293 0.244142 0.19336 
-0.008567 0.175955 -0.187677 
0.095701 0.314092 -0.088661 
0.074516 -0.09372 -0.211078 
-0.00779 -0.233247 -0.082013 
0.260762 0.281747 0.076241 
0.283853 0.210186 -0.026022 
-0.01752 -0.093626 -0.075655 
-0.14161 0.193222 -0.225472 
-0.021955 0.384878 0.039844 
0.224818 0.208796 0.070257 
-0.163804 -0.015591 -0.189378 
-0.105401 0.265631 0.183346 
0.300082 0.286315 0.047658 
0.207458 0.022733 -0.007846 
0.155586 0.332617 0.0772 
0.148689 0.470706 0.058242 
-0.075919 0.423987 -0.087965 
0.173694 0.305093 -0.016655 
-0.222494 0.517581 0.132447 
0.226229 0.298989 0.117043 
-0.27745 0.200568 0.123972 
0.25761 0.085178 0.035952 
0.071113 0.103 -0.108778 
-0.166996 -0.04485 0.217747 
0.125371 0.460966 -0.051906 
0.1976 0.374349 0.048806 
0.015302 0.368194 -0.221193 
0.169089 0.396879 -0.161639 
0.229237 0.148672 0.10083 
-0.088507 0.371539 0.190005 
-0.023182 0.089049 0.107718 
0.212949 0.527583 -0.090291 
-0.018823 0.195703 0.177212 
0.013765 0.213258 0.009071 
-0.181108 0.282432 -0.198294 
0.044472 0.196004 -0.166031 
-0.039966 0.106896 -0.171907 
-0.165371 0.326837 0.203236 
-0.163085 0.218963 0.112474 
-0.036875 0.034128 0.243291 
0.15455 0.430987 -0.115314 
-0.116299 0.228921 -0.108562 
-0.06144 0.360404 -0.180723 
0.058824 0.351153 0.051458 
0.151561 0.376072 -0.136302 
-0.015204 -0.05756 -0.170104 
0.094323 0.089397 -0.001707 
-0.250717 0.129294 -0.17513 
0.20816 0.078291 -0.161898 
0.052532 -0.138521 -0.057406 
-0.005274 0.427598 -0.024846 
0.21833 0.330767 -0.036221 
0.220985 0.331061 0.097641 
-0.078978 -0.198318 -0.059778 
0.144379 0.125892 -0.033393 
0.079266 0.128222 -0.250176 
0.288848 0.213605 -0.080804 
-0.255179 0.234251 0.108246 
0.231719 -0.085883 -0.112461 
0.075386 0.193651 -0.173927 
0.227869 0.109064 0.083376 
-0.269558 0.374638 -0.07902 
-0.070279 0.307805 0.080389 
0.30073 0.325296 -0.203516 
-0.101789 0.106569 -0.168268 
-0.135453 0.096863 -0.096817 
-0.058272 0.05935 -0.230028 
-0.026875 0.119882 0.179417 
-0.053131 0.191473 -0.166254 
-0.06719 0.015342 -0.179375 
0.21946 0.283875 0.062393 
0.341475 0.406685 -0.104776 
0.033958 0.399137 -0.08965 
-0.042529 0.185726 -0.115886 
-0.281467 0.328543 -0.13604 
0.025666 0.368893 -0.078096 
-0.07883 0.32261 -0.126505 
-0.30716 0.165606 0.100589 
0.160642 0.066927 0.054387 
0.09441 -0.184135 -0.152584 
0.042011 0.005577 -0.169423 
0.207446 0.215228 -0.126923 
-0.15086 0.287907 0.240017 
-0.23627 0.245085 -0.109006 
-0.228623 0.15293 0.163583 
-0.238549 0.425949 -0.076636 
0.05466 0.287471 -0.088776 
0.277326 0.038231 -0.17163 
0.158789 0.394582 0.099156 
0.1331 0.331852 0.085622 
0.166358 0.166204 -0.249634 
-0.293064 0.242596 -0.053226 
0.294509 0.164111 -0.063001 
-0.132807 0.284605 0.133971 
0.198269 0.402918 0.192687 
0.031997 -0.232232 0.062081 
0.008101 -0.190835 -0.01726 
0.246594 -0.07948 -0.001493 
-0.098007 -0.060089 -0.0068 
-0.24915 0.183923 0.139401 
0.188983 -0.027551 -0.096002 
0.018159 0.025699 -0.110484 
0.068157 -0.282503 0.123893 
-0.284896 0.232055 -0.101025 
-0.019462 -0.2082 -0.064976 
0.114117 0.384246 -0.220116 
0.014997 -0.270979 0.04663 
-0.199317 0.352738 0.001542 
0.050923 0.130998 -0.205073 
-0.142285 0.255713 0.026863 
-0.103693 -0.258226 -0.037422 
-0.079595 0.263447 0.168171 
-0.044436 0.101848 -0.107822 
-0.278953 -0.014529 0.120231 
0.199719 0.338958 -0.041647 
-0.245497 0.243345 0.04719 
0.087527 0.349707 -0.175308 
0.010584 -0.150953 -0.052154 
-0.280814 0.168437 -0.163574 
-0.129326 0.457739 -0.042405 
-0.240026 0.192669 0.117512 
-0.21713 -0.078079 0.114327 
-0.046123 0.058743 0.173835 
-0.291723 0.208997 -0.034955 
-0.285496 0.312717 0.105125 
0.182753 0.286746 -0.00123 
0.088891 0.200246 -0.257614 
-0.289351 0.324291 -0.001541 
0.052787 0.281247 0.103101 
-0.017323 0.265 0.23087 
-0.211701 0.103585 -0.008106 
-0.090747 -0.066037 -0.120581 
0.121511 0.276837 0.163796 
-0.099371 0.267088 -0.088905 
-0.223999 0.232024 0.251935 
0.153517 0.416274 -0.007763 
0.208317 0.116603 0.014311 
-0.225445 0.366684 0.228335 
-0.068171 -0.029629 -0.135516 
0.127533 -0.004206 4.4E-05 
0.202145 0.119174 -0.185582 
0.190063 0.105384 -0.075645 
-0.032719 0.140048 -0.245033 
-0.123846 0.021889 0.182138 
-0.176602 0.241582 -0.099877 
-0.353781 0.211235 0.136705 
-0.122877 0.447114 0.024384 
0.27149 0.177925 -0.12845 
0.168476 0.071721 -0.183482 
-0.055474 0.019386 -0.093084 
-0.030743 0.411045 -0.097266 
0.116321 0.24095 0.177565 
-0.005037 -0.219834 -0.005527 
0.260498 0.328673 -0.227162 
0.027693 0.045739 0.150621 
-0.130107 -0.049088 -0.092694 
0.224693 0.293383 0.152935 
-0.121265 0.160163 -0.069694 
-0.113375 0.383944 -0.05625 
0.210454 0.034667 0.090538 
-0.09901 0.096842 -0.104621 
0.20884 0.424236 0.160788 
0.166924 0.132604 -0.163291 
-0.082543 0.391431 -0.017415 
0.056112 0.235894 0.19007 
-0.084095 0.292413 0.041398 
0.097364 0.295085 0.221637 
-0.164822 0.243749 0.199087 
0.182226 0.238594 -0.008367 
0.31523 0.174656 0.144431 
-0.140279 0.308355 0.172534 
0.138508 -0.038705 0.079167 
-0.229203 0.317074 -0.140644 
0.097036 0.33237 -0.014532 
0.36078 0.073207 -0.051986 
0.055191 0.410561 -0.027028 
-0.09448 0.085888 -0.109653 
0.291315 0.01185 -0.046698 
0.022844 0.205036 -0.168309 
0.066613 0.308317 0.130118 
-0.249456 0.398635 0.0157 
0.048999 -0.056417 0.032236 
-0.334114 0.012876 0.024649 
-0.098556 -0.086209 0.151263 
-0.081913 0.305997 -0.113197 
-0.200449 -0.112264 -0.015602 
0.180089 0.363929 0.118209 
0.270951 0.144356 0.078857 
0.275053 0.150852 -0.012868 
-0.176752 0.096309 -0.036519 
-0.129625 0.120695 -0.230105 
-0.053699 -0.163912 0.106891 
0.134403 0.385927 -0.020344 
0.180353 0.326527 -0.224286 
0.122277 0.130538 0.153385 
0.052829 0.396335 -0.023101 
-0.292006 0.253493 0.170018 
0.13526 0.235113 -0.023718 
-0.216816 0.061878 0.235539 
-0.24 0.395349 0.105327 
-0.059357 0.25749 -0.119505 
-0.133743 0.12871 0.244331 
0.162354 0.401183 0.082649 
0.204667 0.056996 -0.096801 
0.047134 0.38956 0.041191 
-0.056699 0.026663 -0.071373 
-0.030257 -0.145602 -0.203457 
-0.267461 0.294467 0.021851 
-0.228986 0.325764 0.089183 
-0.156812 -0.094936 -0.153666 
-0.266081 0.128119 -0.072297 
0.230592 0.232794 -0.153801 
-0.123818 0.236862 -0.174828 
-0.078183 0.174942 -0.090433 
-0.330206 -0.005603 0.025033 
0.253321 0.10545 -0.047099 
0.107573 -0.029954 0.020877 
0.221475 0.325217 0.163038 
0.13233 0.387862 0.117649 
0.072807 0.231243 -0.136785 
-0.143793 -0.076522 0.051456 
0.06481 -0.036187 0.073517 
-0.086031 0.364725 -0.141558 
0.288288 0.22948 0.019624 
0.248063 0.302408 -0.043286 
0.275882 0.432887 0.112646 
0.145425 0.408266 0.089387 
0.154798 0.261778 -0.174628 
-0.082221 0.342933 -0.165859 
0.118193 0.311002 0.049272 
-0.211349 0.327804 -0.194151 
-0.050264 0.041719 -0.174647 
-0.089685 0.343434 0.036226 
-0.104759 -0.086451 -0.188006 
0.02854 0.126103 0.177847 
0.200803 0.17341 0.122265 
-0.009309 0.352005 0.163877 
[...]
POINT_DATA 1000
SCALARS alpha float
LOOKUP_TABLE alpha
1.43983685932139
2.278238015674559
1.9752082523545123
0.9269552296680753
1.552058740347678
1.654742400337046
2.1855089229585203
2.196013282494981
1.7848400583655906
2.3001634968164533
2.349160885573968
1.9291870240526687
1.554858134791461
1.5870956557506382
1.8889048811108613
0.7859013043336286
0.8427781227483807
1.8081221996917463
1.8792659516644574
1.5732721562326686
1.8482662089620607
1.6475908961717134
2.3228321488307992
2.3538294635527937
1.6413011903193833
0.950725308246065
2.21462122473519
1.2977884806886588
1.9734947046652702
0.7893402293811671
0.7883139998261584
1.4807678696493278
2.0006421004981263
1.3737149613153217
1.7079621915456802
1.5748359937333245
1.0105946400670747
1.651813642494842
1.0562132835391371
0.9863379499074283
1.7017901968391766
2.015315966997105
1.3509957200026643
0.8075173128481701
0.8301879784898205
2.2584869280633044
2.068649392149561
2.218391564611392
1.2693347347718404
2.279720791981505
1.4804276348614074
2.2969607373553145
1.6746539289105902
2.3379550534824083
2.28108329423432
2.127738772328525
1.3152443467774413
2.0616613268465036
2.3024418095688777
0.796367873679218
0.8583592136990804
1.41054794177572
2.287220129346359
2.0528835546856565
2.0324388670312508
2.0967865594109534
2.132682119063898
1.821760523143894
1.0406143375267567
1.3533655421598725
0.8511069609156898
1.6264375836572926
1.9073288994563333
0.786498543431541
2.142375532282872
2.0967717644517236
1.8829027109697438
1.8784599698753859
1.8442936153647287
0.7887619469146906
1.6547203319043986
1.0373569430734886
2.1189877022856463
2.2934656395563526
0.8713735205519325
1.9115797718869485
1.2011008059595185
1.8728112767935312
2.355260322405636
0.785801103482672
1.712875460713047
0.9117430234702244
2.2035187133550798
0.882669062609897
2.268962297448103
0.8665452173117179
2.2326268128660436
0.8853655931742712
1.370160132501656
1.9070287733928921
1.7490992994395154
1.756453590515312
1.8443219562517144
1.5078056055388953
1.5909377057450778
1.2478376436361067
1.02376829822753
2.17787483403733
2.226657262558844
2.0772430839071117
2.0472790416407767
1.9519268754566867
1.5400576030193722
0.7869154051038206
2.354408540062204
2.222643856151668
1.3289203268047298
0.9866057844235598
2.285483889907297
0.8572029244514209
1.870301493082662
0.7855645699919183
0.7867038015701603
0.9098121474927113
2.0037922384034426
1.5957316174984135
2.188833079810209
1.6899607239336703
2.07576006451687
0.9378429968632487
0.8033853166053855
0.9002818969750539
1.1918484240731482
2.2149815490183853
1.5077453458268726
1.620401738072816
0.9265078342017515
1.2540241119980626
0.7855325779372095
1.6462795694271997
1.9831644955156522
2.1621199607763493
1.400585969180289
1.5773467275903372
2.1808975012936913
0.8962326070981566
1.561360764237249
0.937752700151501
0.785666892625503
1.2754293128766592
1.9549507148443261
2.3445902277134567
2.0942115703954864
2.026908562388795
2.181564874472278
2.323545959714594
1.0852489734713544
0.8555261232300012
2.35433661285074
2.158172560569519
1.1356610496772894
1.8398094248669452
1.753176190363683
2.2002742711060947
2.009331797992144
2.297102407648997
0.9268474173222497
1.0010395750419676
1.7183977264546153
1.9770731058996904
2.169885262077683
2.3002635540652956
1.916314379833761
1.7622922298679629
1.9366075499583946
0.8722899362400152
1.172420818804631
0.8831781879312631
0.9561438672929319
1.3141217466102815
0.8188891858206154
0.9146820478219422
1.903270152189756
2.090348865890938
2.1990186207479234
1.3416165451928526
1.8510161243900576
1.406642302584593
1.0183484704025625
1.3996728979263962
0.8422469331672763
1.0650744847717086
2.1374906469724126
1.1139125395886171
0.8002452826892109
1.9651639373177485
1.654502661282081
2.0099834907416385
1.439743173090837
1.0966171036543482
2.1755237065839204
2.3093221396344346
2.165493202897309
2.3188313626061903
1.7528185292838172
2.215336428582625
1.8770740160977886
2.3548952436520683
1.6761014450445069
2.1710232575762562
1.2259115410509351
2.3059092407614665
0.8518041588599673
1.2930617396283608
1.727295388247526
2.254372293986894
1.3270185570071904
1.3360830505080692
1.9230700966744565
0.9956680280222454
1.4825788721072828
1.2702212069909216
1.9950058992545332
1.776744971385511
0.8046161230237775
1.7632376087971546
2.1721415958597925
1.5586311955290304
1.6683450730391358
1.4325906452304866
0.8596611921082792
1.5855681648766733
0.9508524908249287
0.9830306266395764
0.8010433487439844
2.244711460980044
2.2383877350436805
0.7946555375446336
1.7534165082123334
1.4797800139819695
0.7937043985894994
2.176303635874688
1.128053122436693
2.2516995650649423
2.3444350484596543
1.6459276771084375
1.959827140948266
1.6387641237106256
2.123084392937154
2.311533154582492
1.5416145700507777
0.8472476926701396
1.9725927996289265
1.8987712148317664
2.0635437713329696
2.157046895946549
0.8609435312379675
2.307450106850242
1.5323972324870576
2.35507399451341
2.3461153324044144
1.0187406921852205
1.5095220618442504
2.2270553554200103
2.2913289786445565
1.5593162761888717
0.9339242878451037
1.923665775837998
0.79228251261655
0.8589183408678611
0.7988110741233403
1.331416008714771
1.4265154131830342
2.266749681454809
2.113705460291442
1.3847060288159805
2.339674855704912
0.8807361970171024
0.8362019455680104
1.9499875460073033
0.8197625955617933
2.0646819352499817
2.1416806195752804
1.1833674459477452
0.8061410743677276
0.8862095637487107
2.221742063629715
2.1611056160886646
2.169471518005502
0.8873448924998782
2.30412791944126
0.8064346346065886
2.2824940845261437
2.0900066372854744
2.3354825299214856
1.372741599588044
2.3017327267323306
0.8050208538553113
1.2034333388075067
1.1816378565186283
0.7965051659717014
1.4691831335193868
0.9988752475906727
1.9356652139694295
0.9480314173190676
0.8793602419571144
2.1113738119746897
0.7928554272225002
2.181142002935457
0.7855501592500022
1.7296101430405417
2.355059948942434
1.0496126464972309
1.3150353331143485
2.257676669741836
1.8796788549985766
1.7164335750359343
0.9117774390356479
0.8795502342946135
2.2614405305931173
2.2547657479699112
2.333603635879288
1.3406339008584198
0.8119557272603004
1.5373800356008387
2.2035009385987387
2.115883160779695
2.089469707255373
1.1990357284441366
1.4039501879639507
1.073308151146346
0.7854092394091645
2.0177539185995585
0.7873395897821465
0.9659442177825873
1.174137287737418
1.1562430570131268
0.8382857821805159
2.3067952465549877
1.4521154877564422
2.242989559940663
0.81905742206748
1.7903556610934352
1.3548146477991592
2.0970553572549306
2.3540175940900574
0.9342109016800465
1.6088203093503988
1.8464908348382314
0.7884727192129972
1.1113634713395328
0.9242443343243301
1.6977026731882066
2.0081425452234645
2.1660549096209682
2.1394634777113883
1.6301914122759182
2.348271713498259
1.2699660726859447
2.0286535921325117
1.9683110357679743
1.6068998160706245
1.4254180712441
2.0339847346504945
1.4982608530266577
1.345049111937639
0.7870769460992937
1.5327759397033336
2.1239255071151857
1.993562899986334
2.129593280265659
1.6136874729949908
2.2677402942363827
1.2572932436770614
1.7679661569160434
1.0005849084182534
1.9833679882951605
2.189255200393353
2.0317242851110002
0.8471060725239179
1.0187546210661966
0.7865155493249704
0.8048956783424864
2.2033188406121558
1.803175663377331
0.9251229379550062
2.0536639371265126
1.1450654422083837
2.1707904743160062
2.3409982062767
1.4828518916783633
2.166176601307215
0.8954608656916166
2.267436882030091
1.870174142313629
2.3481467266453704
1.2106585380066606
0.8620870536476751
2.266258977538208
2.3520007892094084
1.174076259001561
0.795160223750506
1.3827349936321252
2.0377630399064084
1.2963485426815013
1.3618464902414067
1.8648652969843549
1.430472017989148
2.28328428295891
2.068732237697221
2.35166316524245
1.4662368537696329
0.8427061209694429
2.2343190773558685
1.9093064114547054
1.4846660671508223
1.050636097744366
1.7132989964643974
0.8135377384350214
0.8274162614498934
0.8939687123912935
1.7987409552931093
0.7973998194812658
1.4489883142792073
1.5258285446311513
0.7910470997748024
0.863569693289853
1.9303198616563615
1.3379090741485005
0.8956786177671809
0.9842980117399533
1.9840044538339512
1.9291996795929365
2.251836249018456
2.030145744663876
2.317052745503223
2.355393943940309
2.3259704855383982
1.9593478857946172
1.7699414832825353
2.100643377701968
2.3021680273328458
0.9591736212675812
2.3088324130530276
1.152409854718616
2.189892687819568
0.8043744881598929
1.3053039010365517
2.04572342848347
1.2765590890029979
1.2593834097457974
1.5879209272384214
0.8611231253520162
1.1828146090811182
2.3309032258550277
2.2412478299832013
2.2141329994669015
1.1964334732749364
0.8301189849414878
2.1207242010379694
1.4068609433484764
0.9547317938873043
1.657359351826457
1.1945837194015112
2.1048894200153248
0.8272305482284696
2.1270050008996857
2.2094205959207835
2.3517932462619786
1.829342529683958
2.3511152388645846
0.9152084706290372
0.8375082770800762
2.344781243892375
2.2893402767352904
2.326870130556681
0.7859857075566664
2.306467608024921
0.894832563867512
1.175740884517286
1.1006910128380858
1.7960872116437678
2.2155223513934166
2.254010005586001
1.410959890050804
2.2509639910839856
1.2221368250511215
2.2853902695385258
1.4084686172851282
0.9159258799928556
2.263211219834531
2.2333299388382413
2.342692652760952
2.352597477775254
1.842535228159355
2.289612903431113
2.1959418784675795
2.073746753761964
2.1359597793735783
1.9777573500070078
0.9137852692527942
0.8299455244773194
1.0784448685219075
2.2877116041016348
1.7833118273654447
1.0982697781720934
2.341790962319222
2.241353479418611
1.12529860481499
0.8181805272175567
2.0725820529396515
1.3522290649376476
2.337877529111161
1.561659387999458
2.3523849200814566
2.339413989554263
0.8056641630629218
0.7934640153530513
1.9347748448526894
2.0326683735542863
2.3348182743604307
1.0865851232921782
1.0773980861334291
1.832331226424942
1.11425839114318
2.3561317055052484
1.7768807946630074
2.292008146293454
2.0767940157984897
0.8278510019433644
2.171118835867251
1.5681182861304133
2.258405381160413
1.4861191574822912
2.318778313614235
1.1992446505877807
1.1056363850372326
0.8039864400106005
2.355167056547821
0.7855023602835249
2.352220389164318
2.164216653607767
1.2748765974226555
2.216464936944142
2.042897686805559
1.9272492928672558
2.2182827482528094
2.134694316882418
1.7087579321472652
0.9274028857905817
0.7867758102176543
1.9307984337734845
2.298218172795528
0.799819389737274
1.5789722852530774
1.9184248418472352
1.965446355426777
2.3016088853907957
1.6083993121533817
2.311055754184719
1.1270141216109366
1.3077292663215796
1.9422445936675141
2.231973796462058
0.8200776585314346
2.172710959627702
1.6204827453752875
1.2238988210626713
2.1510318210884605
1.2693279635585715
0.984817648992264
2.349525717724601
1.6672032096747054
0.8781718530199292
0.8021774928851791
1.0244786663510292
2.095705184649013
1.842478298096174
0.9332911726957307
1.062780469779953
0.9111187971461658
2.356194461651536
2.3560018747331553
0.8084418972855398
2.1654238780648654
1.8848078802381478
1.3349371157751875
2.1572029931929215
2.2787927781820994
1.6181535395061057
1.5748142198674853
1.8672781873194793
2.354806373457954
2.351255548726059
1.0583736180754189
2.279880274805409
1.8659710798214184
1.5337485167226566
0.791259732076091
2.2823719772786277
0.7856042467491551
2.0655890746905614
1.79081820773436
1.9069573073763895
0.8579781976586971
2.09898581943817
1.686876323487008
2.2266065076985835
2.221928539334169
0.9534913398106287
2.348130774603661
0.8743618085879581
2.2845442915171503
1.598644854723923
1.6356494005098923
2.3496302167651746
2.169609129227371
1.1436893088211757
2.085069798572784
0.7884877390569539
2.2193229159564187
0.8944985870924457
2.1535857389642454
1.2872119285781578
2.2461682993895145
2.25156953462652
1.6017362489942044
2.0442329697627786
2.354544271174321
1.94872036750601
1.5231074147275232
1.534978400954363
2.171099242306383
1.3896603846983824
0.7868680113078121
0.7856204858829005
1.3178225071647351
0.824315324870449
1.3917384872207081
0.9965023599858451
0.9908553550212083
2.062899413091108
1.8751645132756052
2.076303368469648
1.9793160215966568
0.8542750530721953
1.8452669381077875
1.4351641134389983
1.030734320713547
1.643278803932469
1.680215385579948
2.3506038200508974
2.3254392152654977
0.8185000768462108
0.7875826651194818
2.2768842137460137
2.2884840792789736
0.8079732379963551
0.8987785611022677
2.216709619146642
2.162578453816024
0.7947319610091276
2.3335685942489692
1.676572709925839
2.1009285316531128
2.2549524439983593
2.1723252385037397
1.8932309339721962
0.8079786161382391
2.006804779410497
1.9181014078699228
0.9078967907794216
2.353037023422341
1.8128657403256845
1.4963321257410973
0.9318865551284817
2.2848101702537105
2.14435355618313
1.8733796138411403
2.213799575371708
2.151191493091362
1.0347581182208878
0.8780715050038108
1.7598684018108124
0.8116321675258149
2.3469148546668235
2.0967819037922935
1.7603034336121948
1.367807375755707
1.7081146638106242
1.4707418425806413
1.5590136103830405
1.2696022678978627
2.220536840169481
0.7874678038798233
1.537011431375084
2.3553837228652394
2.1179525304259923
1.500969926161665
1.5380571369991787
0.7867591160800481
1.8849032276868822
2.3525507690105676
1.961087136793533
0.9234245480663218
1.142149004782261
1.347078738537525
1.8372439077380354
2.0304824152836853
1.8492498110645035
1.6160149261020547
2.304605212606725
1.17842942376422
1.9575273421092776
0.9547787782685891
1.6862200196330244
2.2728995948039814
1.3912708144653194
1.8455181020082856
0.9654695958369337
2.1210647031476855
2.1908057225026614
0.9631925824335461
1.3980304864477424
2.240421954530802
1.6057561964590954
2.269234530402091
1.639670689535338
1.5564181970819015
1.4513233395796168
2.2791070532809385
1.9564966260875498
1.384077849405563
0.8824584105869213
0.7862767902528328
1.4903392964384363
2.1266640278115325
1.8212528087581217
1.7687428433117596
2.306748655940661
1.140854864743157
0.8976040102442967
1.173157089344113
2.3232324164823765
1.1111976586799408
1.426519687522558
1.0084291312836173
2.201317763729802
0.9706410638725184
2.218332498544632
2.029398847171686
0.8535489726471531
1.0504950585473243
1.437326598427917
2.2678484582550125
0.815696186729761
2.336104172765638
0.8007081476308365
1.2778960336749392
1.7013360205633814
1.658060861927237
1.8340287431465332
1.715674699141601
2.1899756569799598
1.147740825965968
0.8356867034393612
2.3164689342226814
2.236021770604695
2.2469884134510623
2.3435808530447035
0.7963271312844246
0.9732337930215316
1.5920282706582993
1.9956680141317333
1.331152465264421
2.321695741128642
2.1491702904344674
1.0558054499289773
0.8419283922713052
1.0980673280490154
1.071037550975351
0.9674896603134614
1.988844525958655
2.3134723630389415
1.9130805785107428
1.5594800486412796
2.3513787924604825
0.8184980507409857
1.798392666280256
1.798172277869091
1.2174859490342549
1.5015157463779123
1.424062198609509
1.566068554469882
0.7903644217062245
0.7856909619015271
1.1937630703112923
2.356188675522273
1.653241322982529
2.335951715591917
0.8614882963646455
2.330107114928752
0.8038602241063428
2.1960869687269953
1.4781370694977873
1.4272662446987012
1.3095419488945623
2.138175436005514
1.710593141732671
1.0098954915302025
0.8103836379713986
0.9601112564020268
0.853995684563665
1.3708514607680355
2.347020531683838
2.296152573514286
2.3521656300934195
2.063285459528757
2.2863787536643256
1.8341456534045655
1.4724009382004846
2.3101652828588213
1.8889072187119234
1.0633867030732655
1.7587680556985026
0.9212782930304243
1.3704341656986685
2.3408448648375084
1.0298651462319435
1.5568421086165185
2.335119565178384
1.8927555134020884
2.328056298959274
2.0883914485186637
1.2661654688648412
2.2324831061002146
2.251686794130261
1.538840631529519
2.2335398667549278
1.4534379919283313
2.269669278919508
2.241830454608856
0.9760210177831851
1.0167392608495314
2.2601524775323263
1.6680317788160255
2.3335589695576906
2.3501291663199564
2.132009137236217
1.8745262217443697
2.26172444105998
1.07107499167312
0.7907578346805403
1.4359887748967526
1.7047207039470662
1.467825494225673
1.629360313964696
0.8132340874345173
1.7453649342338795
0.815672279268842
2.248625374435865
0.7854033499198007
2.067025220391963
2.2909755186078216
1.5441602657767857
2.355573644882646
0.9168628669116333
1.4733735655837603
2.1172184321035976
0.8667650556504615
1.2482522774816918
2.348176265000991
2.1363643802431707
2.0265457660099835
2.185323286803247
1.4632582789642707
1.367384884945829
2.1653897411414116
2.0621699053765337
0.926161015667816
2.3482319122670323
1.3894920733339997
0.884724394004587
0.8051355545370945
0.7980971877693145
1.7089673973542634
2.2486257884856236
2.194038151574548
1.1506106115754773
1.1708639561484486
2.35619258772058
1.4097745434500482
1.4860988633039967
1.2185676062678084
1.3103305620905594
0.8058741273424999
0.9267234828054534
1.2384354190989457
2.2570426552026395
1.9681247365135022
1.5403509942090352
0.9617985012717414
2.3479677360592284
1.2823457991083838
1.2035616848679644
2.3520569036278
0.8288233680861152
1.8403398690579333
0.9420100530733717
1.2973889228656206
1.02423778725552
1.6149092742603093
2.3413925175684547
2.2930966080137214
1.4189227010809766
0.9463281822357777
1.670101078928654
1.8662245536300068
0.8520848035621253
2.1954399570386487
1.6429764708709342
1.5726914462177415
0.9522684614581639
0.7869388639117803
1.1623123899973808
0.8675110049574138
2.0605760128472586
1.7498613227738635
2.339682766277379
2.3544235251844405
1.1340941261186248
0.8446314382922406
1.1226407397273885
2.303535153115693
0.8724151323071755
1.2662395141759908
1.117981135467397
1.1770740078476203
1.7388454535524915
1.5867944582014963
1.564158257507878
0.80986771072081
2.3535111518903284
1.2179302524927504
1.446025795387905
0.7854321262358274
2.305902845924945
1.3017942695248923
1.9400650300090099
2.103453564771695
2.0147629982946453
0.7874067959021289
1.8066437962772033
2.226479405052373
1.096647635592936
1.2607695423089695
1.0191644248727294
0.9241629744447564
2.2701144639243904
1.678553525483727
1.8221495774330945
1.747640574332906
2.189493168361724
1.2118240238096385
0.8658946560921087
2.2301929348347653
1.9177360835264836
1.9498971338753344
2.356112028909455
2.2861620856446927
1.8130962195242613
0.844709160656267
1.69998770515929
0.8004790842918118
1.811675171501426
2.349826116181163
0.9739783161692518
2.0957190660006524
0.947694360423231
1.2694585044645743
2.145806488171429
0.8300099152110263
1.7354050047612501
2.3561746082631583
1.1035576936595097
0.7889238567012443
0.816986034312134
2.3056566126419527
1.8093759010468864
0.9609278068933405
1.2036989099784607
2.2577885795296337
1.555728388023122
2.1001910525973884
0.8222362271190272
1.2322853064316692
1.7096959012615758
1.5242458949793862
2.1279925146968557
2.2876070388211374
SCALARS beta float
LOOKUP_TABLE beta
2.898589357714426
1.1637876458445786
2.4434218758056065
1.6959776901575145
2.1832753716658075
2.3288048457982553
0.8333878473143999
2.302256005805531
1.038308158834413
2.029938981954247
1.6849010332122512
0.5246878019991728
2.0881294821938154
2.5060900028754975
0.852283066347137
1.613256415723492
1.4891121888687158
2.573065311413422
2.783017783757772
1.8394863656251061
0.6028915629459337
2.2457071881717185
1.6492496640137464
1.5218546785020892
2.468068437053652
1.016724245647167
1.7750914054659526
2.4226288342509017
0.8923051536585704
1.4625270448333363
1.4810747933220068
1.9941646144037024
1.369328049918
2.21426481844878
0.3719361902203414
2.7862377681338706
2.38497135468857
2.5348906008335788
1.0461114100201931
2.2381186613366326
2.5305167519241767
2.318177569345702
2.035516531356289
1.788485598934636
1.4077599720281946
2.139923287209788
2.4859696717291953
2.255509292709723
2.4147995728488136
2.099637511396565
0.4682664244097321
1.7867797648989496
2.643208432013657
1.7958125858277887
1.0945312690418345
2.36472194051285
2.4525087094593334
2.098951102616237
1.7037396621622565
1.7672784961669072
1.8571953909335168
2.3949830418572926
1.9438222057851995
2.5895184338219113
1.4102871489656552
2.3225154716452607