# vtk DataFile Version 4.0 
Unicorn heart vtk output
ASCII
DATASET POLYDATA

POINTS 1000 float 
0.242255 0.259894 -0.050836 
-0.259986 0.087233 -0.078453 
0.114281 0.083791 -0.087512 
0.11174 0.325468 -0.218161 
0.282111 0.220839 0.095363 
0.147149 0.329979 -0.139472 
-0.045175 -0.218924 0.063062 
0.009646 -0.146641 0.025075 
0.16185 0.432985 -0.127668 
0.00529 -0.228855 -0.068721 
-0.040329 0.036152 -0.005844 
-0.364948 0.123013 -0.036269 
0.109725 0.313129 -0.165895 
0.048163 0.009547 -0.15688 
-0.268179 0.102381 0.124654 
0.069466 0.233913 0.029015 
0.039324 0.038228 -0.236529 
0.122423 -0.022558 -0.133753 
0.069465 0.005035 -0.023554 
0.037502 0.179839 -0.211966 
-0.153573 0.06449 0.142492 
0.007553 0.163962 -0.101555 
-0.016273 -0.065084 -0.16958 
0.244498 0.188091 0.037558 
0.3709 0.257272 -0.152383 
-0.120989 0.421504 -0.010547 
0.201585 0.219192 0.055762 
0.383753 0.306664 -0.01026 
-0.089977 0.126393 0.15876 
-0.056751 0.346533 -0.068201 
-0.028728 0.349118 0.082468 
0.104093 0.259639 -0.00196 
0.175694 0.301836 -0.186009 
0.240996 0.277904 -0.104057 
0.082298 0.028059 0.013927 
0.208551 0.160885 0.176676 
0.234591 0.31879 -0.005275 
-0.019246 0.089709 -0.168841 
-0.187763 0.332522 0.195872 
0.153503 0.236691 -0.001127 
0.375139 0.091333 -0.02196 
0.17091 0.214781 0.151332 
-0.254844 0.256498 -0.05493 
0.031756 0.264178 0.169048 
0.093589 0.278024 0.141407 
0.203499 0.05046 0.070537 
0.278527 0.160722 0.008007 
-0.15057 0.127214 -0.002329 
0.394226 0.270597 0.064256 
0.157557 0.071915 0.009238 
0.072704 0.073056 0.090437 
-0.08641 0.401136 0.175314 
0.238461 0.242686 -0.001729 
0.194139 0.153453 -0.000901 
-0.083071 -0.169081 0.07734 
-0.024581 -0.094782 -0.076376 
0.083149 0.290121 0.21222 
0.120794 -0.00689 -0.09998 
-0.18794 0.185677 -0.028183 
0.063034 0.378768 0.195944 
0.176185 0.350969 -0.048361 
0.1671 0.165942 -0.113446 
0.00698 -0.194748 -0.10961 
0.134135 0.256422 0.004812 
0.055906 0.035623 -0.222348 
0.284655 0.165758 0.081432 
0.191717 0.204009 -0.012745 
-0.221616 0.097971 0.152231 
-0.247447 0.271468 -0.000198 
-0.223078 0.267466 0.041291 
-0.194533 0.435474 -0.028307 
0.113231 0.107631 0.065173 
0.150221 0.465123 0.081789 
-0.081793 0.398205 -0.074635 
0.056629 -0.020966 0.070823 
0.1366 0.080097 -0.227967 
-0.074386 -0.019934 0.168221 
-0.023258 0.052389 0.084463 
-0.257271 0.202698 -0.021834 
-0.208293 0.303718 -0.009637 
-0.229651 0.201009 0.175078 
0.159506 0.425626 -0.103137 
0.015673 -0.093588 0.07102 
-0.039305 0.065444 -0.229942 
-0.082221 0.328036 -0.085387 
-0.066976 0.043369 0.158038 
0.234167 0.318612 -0.200497 
-0.013896 -0.007625 -0.016605 
0.114525 -0.212105 0.125154 
-0.186118 0.364647 -0.071411 
-0.095471 0.038931 0.103216 
-0.31957 0.408344 0.11095 
-0.201793 0.138374 0.009322 
0.241365 0.307695 0.054057 
-0.064783 -0.139414 -0.104325 
0.140345 0.223026 -0.000333 
0.324198 0.021826 -0.014944 
-0.09666 0.446535 0.131302 
0.122187 0.142545 -0.092011 
-0.140301 0.151495 0.226461 
0.250476 0.256066 -0.05713 
-0.226633 0.24777 0.014927 
-0.225519 0.108769 -0.127484 
-0.027005 0.096991 0.020223 
0.208905 0.244386 0.189729 
-0.005802 0.17474 -0.183278 
0.075424 0.328618 -0.108583 
0.089151 -0.081667 -0.18525 
-0.010822 -0.247049 -0.093915 
0.277071 0.285642 0.081583 
0.290814 0.203654 -0.033847 
-0.006195 -0.055905 0.005894 
-0.141338 0.193327 -0.222831 
-0.026986 0.377449 0.039737 
0.220239 0.208381 0.071303 
-0.140375 0.012072 -0.146452 
-0.122548 0.260477 0.149021 
0.302302 0.278617 0.052197 
0.206045 0.009141 -0.016024 
0.15881 0.328277 0.074988 
0.150846 0.472868 0.064472 
-0.133705 0.336771 -0.059088 
0.171038 0.249912 -0.020674 
-0.242203 0.480272 0.102663 
0.235507 0.300019 0.114962 
-0.282663 0.201755 0.10553 
0.259862 0.093561 0.040769 
0.064313 0.097918 -0.137942 
-0.175302 -0.037937 0.205778 
0.189535 0.371891 -0.015127 
0.203045 0.355637 0.040682 
0.046001 0.35628 -0.204608 
0.187421 0.387727 -0.140658 
0.236137 0.163319 0.10123 
-0.135241 0.350539 0.127877 
-0.027709 0.09182 0.087016 
0.19619 0.543135 -0.103808 
-0.023229 0.196327 0.176516 
0.021333 0.145896 0.005878 
-0.162421 0.278985 -0.163645 
0.040449 0.194058 -0.168801 
-0.031629 0.116044 -0.130992 
-0.200349 0.321949 0.16349 
-0.15806 0.218246 0.123722 
-0.051505 0.03884 0.236371 
0.160281 0.423943 -0.108917 
-0.1164 0.229338 -0.111431 
-0.052253 0.345746 -0.181193 
0.066081 0.33817 0.053038 
0.176667 0.366675 -0.111898 
0.006375 -0.041483 -0.104571 
0.03366 0.149649 -0.030022 
-0.253252 0.133894 -0.177715 
0.230893 0.09164 -0.12645 
0.035023 -0.116772 -0.032565 
-0.023372 0.355831 -0.026909 
0.212358 0.289822 -0.003723 
0.241512 0.321136 0.094317 
-0.055768 -0.166354 -0.053699 
0.127841 0.157745 -0.000348 
0.093168 0.12495 -0.244337 
0.29174 0.216673 -0.073664 
-0.260929 0.23577 0.098525 
0.228597 -0.091758 -0.118048 
0.102566 0.196078 -0.145265 
0.235195 0.120889 0.077078 
-0.271458 0.372161 -0.079877 
-0.115373 0.278088 0.049662 
0.326799 0.321974 -0.171904 
-0.100005 0.108084 -0.168251 
-0.137619 0.103207 -0.086313 
-0.05349 0.061092 -0.230868 
-0.047051 0.12735 0.150965 
-0.048319 0.191438 -0.153968 
-0.061543 0.018124 -0.172545 
0.221345 0.281471 0.061057 
0.358316 0.399039 -0.087659 
0.049128 0.389974 -0.083952 
-0.04558 0.179892 -0.10928 
-0.296345 0.318409 -0.153477 
0.071654 0.322201 -0.057576 
-0.084368 0.314158 -0.114606 
-0.311556 0.173662 0.076513 
0.159279 0.076116 0.039906 
0.095469 -0.19208 -0.161314 
0.036268 0.006022 -0.171225 
0.215094 0.216716 -0.117299 
-0.133602 0.288366 0.247024 
-0.242534 0.238814 -0.112408 
-0.242797 0.166372 0.052512 
-0.24309 0.415429 -0.080317 
0.071298 0.275612 -0.06692 
0.305515 0.079218 -0.106371 
0.163411 0.391256 0.103854 
0.134697 0.327757 0.083233 
0.210004 0.173522 -0.155614 
-0.300184 0.239177 -0.057811 
0.296847 0.148543 -0.089483 
-0.141404 0.280582 0.114894 
0.198377 0.387877 0.195306 
0.042113 -0.240068 0.069976 
0.012879 -0.185683 -0.01371 
0.24562 -0.069728 0.008339 
-0.086525 -0.048459 -0.008828 
-0.266808 0.191051 0.11553 
0.188934 -0.021624 -0.090971 
0.024485 0.030799 -0.095329 
0.026596 -0.216516 0.081722 
-0.292081 0.235181 -0.105884 
0.002153 -0.14769 -0.006135 
0.155911 0.35534 -0.147743 
0.010101 -0.25664 0.041069 
-0.198352 0.329394 -0.004957 
0.070309 0.132854 -0.17721 
-0.126817 0.264287 -0.007037 
-0.100475 -0.254598 -0.038721 
-0.084779 0.262771 0.163541 
-0.041878 0.102475 -0.092988 
-0.275263 -0.017762 0.127747 
0.187976 0.355555 -0.060464 
-0.228737 0.244507 0.015357 
0.129191 0.325052 -0.126484 
0.008381 -0.145553 -0.039022 
-0.292358 0.17121 -0.174781 
-0.141501 0.443133 -0.04566 
-0.254361 0.200462 0.071048 
-0.214945 -0.00824 0.061351 
-0.051095 0.059639 0.156526 
-0.269251 0.223403 -0.026009 
-0.308452 0.298393 0.059431 
0.182951 0.275816 -0.011574 
0.123695 0.1957 -0.197282 
-0.288416 0.311281 -0.01061 
0.056847 0.254766 0.057765 
-0.032105 0.255091 0.220567 
-0.208036 0.123112 -0.017739 
-0.092118 -0.069195 -0.124404 
0.124115 0.280026 0.164128 
-0.101297 0.266939 -0.085134 
-0.26325 0.228214 0.208001 
0.121309 0.454812 -0.013896 
0.218257 0.144303 0.018808 
-0.233846 0.36417 0.22179 
-0.069844 -0.033482 -0.139916 
0.122098 0.00723 0.001025 
0.226065 0.134629 -0.09317 
0.188066 0.10206 -0.083831 
-0.023415 0.139934 -0.246021 
-0.137959 0.039767 0.149976 
-0.190515 0.247262 -0.088046 
-0.372834 0.213191 0.113599 
-0.172765 0.386811 0.005514 
0.286357 0.195417 -0.087195 
0.175251 0.074378 -0.175372 
-0.053399 0.032267 -0.058684 
-0.004495 0.357969 -0.082128 
0.119607 0.232967 0.160958 
0.009968 -0.139355 0.050784 
0.287392 0.328283 -0.20464 
0.005137 0.057631 0.103242 
-0.12923 -0.04476 -0.091837 
0.225917 0.290698 0.149676 
-0.123921 0.161999 -0.095771 
-0.110952 0.388028 -0.05846 
0.203132 0.06373 0.075712 
-0.087389 0.109429 -0.036141 
0.205008 0.428706 0.15706 
0.207963 0.151516 -0.081298 
-0.099556 0.375778 -0.01976 
0.040058 0.21264 0.126983 
-0.075883 0.298219 0.042709 
0.094187 0.294086 0.224461 
-0.184686 0.238724 0.155291 
0.168137 0.250891 -0.00937 
0.309172 0.170744 0.143467 
-0.1887 0.292112 0.088748 
0.129333 -0.006006 0.060626 
-0.23586 0.308798 -0.141641 
0.117612 0.307676 -0.004429 
0.368151 0.08151 -0.038734 
0.059972 0.403425 -0.024782 
-0.095292 0.097406 -0.089324 
0.283413 0.039181 -0.023905 
0.039266 0.204482 -0.159839 
0.075768 0.295012 0.118635 
-0.254432 0.384329 0.008466 
0.051677 -0.060813 0.036343 
-0.32218 -0.006124 0.04486 
-0.105329 -0.074192 0.131753 
-0.09729 0.265471 -0.040959 
-0.195444 -0.097206 -0.020183 
0.179947 0.361353 0.117516 
0.273037 0.148761 0.080237 
0.276035 0.153807 -0.009077 
-0.18173 0.104716 -0.035865 
-0.13223 0.122774 -0.223281 
-0.051447 -0.139021 0.088886 
0.167104 0.346511 -0.011608 
0.239393 0.30669 -0.147181 
0.112414 0.129048 0.08659 
0.060808 0.387122 -0.020643 
-0.30417 0.250457 0.151586 
0.132132 0.228771 -0.014485 
-0.251801 0.073474 0.196635 
-0.243872 0.388006 0.098741 
-0.056857 0.241147 -0.096391 
-0.154344 0.137799 0.226754 
0.171091 0.391243 0.078181 
0.205474 0.079523 -0.065405 
0.042889 0.393891 0.041408 
-0.056423 0.027438 -0.065066 
-0.004006 -0.111798 -0.156196 
-0.276318 0.311499 0.040153 
-0.224826 0.328563 0.099861 
-0.153346 -0.080063 -0.159079 
-0.248258 0.155327 -0.046656 
0.244509 0.234467 -0.136348 
-0.123514 0.236531 -0.174644 
-0.079187 0.17898 -0.093034 
-0.334814 0.009392 0.01737 
0.238665 0.142367 -0.023806 
0.078065 -0.000812 0.010633 
0.230197 0.323126 0.175418 
0.130856 0.392449 0.119882 
0.064719 0.233545 -0.162153 
-0.124448 -0.056383 0.034044 
0.066726 -0.039269 0.077604 
-0.077838 0.3712 -0.147821 
0.29076 0.233403 0.011313 
0.24529 0.308753 -0.071905 
0.2862 0.417022 0.121586 
0.178309 0.366229 0.063183 
0.174014 0.267615 -0.147522 
-0.085323 0.332682 -0.161236 
0.111961 0.316713 0.054928 
-0.210938 0.307522 -0.193606 
-0.053935 0.042775 -0.176551 
-0.12688 0.301774 0.013867 
-0.108816 -0.091209 -0.188197 
0.00739 0.128141 0.118453 
0.203438 0.175207 0.077685 
-0.05452 0.308003 0.113008 
-0.022471 0.031691 0.073708 
[...]
POINT_DATA 1000
SCALARS alpha float
LOOKUP_TABLE alpha
1.6771009826555106
0.8612970452533123
1.7423402641357941
1.1142772954887883
1.8918768126510428
1.5095011339850148
0.9260393693762273
2.1702796908171513
2.071735017488942
2.289541391454212
2.3522126146603406
1.8665929730338362
1.457155718690792
1.7020073059164937
1.0911903250096846
0.7958175107108023
1.478584280825649
1.8839080523066738
1.9729749507081447
1.3962141157079537
1.7632329360721675
1.4358203021900093
1.2324046074300423
2.2892337735350665
1.6378956791561963
0.8734647757302487
1.721820239311881
1.2758461017889602
1.9921700534900761
2.338686833144913
0.8465376810736943
1.4193804322736752
1.4978042689802928
1.4543746164635125
1.8946098926638448
0.8018311176492454
0.9545802205949002
1.742449266231768
1.8032966873445748
2.3220985106562853
2.0275954085583656
1.5097837654962443
0.7910301628319578
1.2755668167025156
0.879761009891334
2.2093896965595996
2.320989285938238
1.8589973778500475
1.2255236560565652
2.356122745886676
1.7188151308296133
0.89008294947942
1.7027991302083298
2.317314616242144
2.2788326997270945
1.1497638448246437
1.1848266580308306
1.8877800895575834
1.6052336499724678
0.7969947793471814
0.8994995634396341
1.5318035697384158
2.278938058071668
2.1146996710604147
1.8546443878358718
1.9501443690423126
0.7888683953378046
1.757462679219656
1.043877819354792
1.3761595641855808
0.8632387512090836
1.7404363797649465
1.8702831335395789
0.7865708250719105
2.0429160480435558
1.31039217187566
1.2767881792972162
1.825108087278292
2.256726359449061
1.2650338383096358
1.7181471581337957
1.0157635725484941
2.069270252427938
2.2189420512046274
0.785852493198862
1.8000778831922508
1.834940343996404
1.8722280307199273
0.812785625553702
1.028490767455711
1.6878423128119118
0.9912464559700566
2.244111398385023
1.2610708298828355
2.1096611492190953
0.821612955437247
2.326828734592769
2.227279587825465
1.437859039144935
1.8489389278383601
1.789626720558221
1.8507463431167577
2.3460859986845395
1.7542098267666884
1.2534017744790482
1.2298504530728909
2.1224649925789847
1.9324619315830962
2.2641926838385977
1.5964107823482676
2.071060709196186
2.0091554869464656
1.3811255057604415
2.3471138968407463
0.9819748918163748
1.9162320836137023
1.4619868874654711
0.7937703847221921
0.8183897829081594
1.9886444798735081
1.876463656345215
0.8409624003212379
0.7904033691161283
0.9051071719453742
1.867613116753716
1.6066933839232869
2.2730523541678385
1.9042973128309442
2.0516153444913887
0.7926569142972836
0.8310912738035233
1.0604298511209471
2.0086363176385484
2.230164423574285
1.3017387313537125
1.6976071810545557
2.291051705765498
1.6272184149611364
0.7958648313033337
1.3782680571499217
1.5258207169144808
1.7952188495098487
1.4138595217938472
1.5439755675039484
2.1294497782497572
0.9179626711958593
1.5980797270079519
0.8402490254278183
0.7878444027087229
1.2622964029098198
1.877911975437894
2.284134443433574
2.2141715096585224
1.9121962999475328
2.1769845799069407
0.7908703355755748
0.8209019942484531
0.9598735292851215
0.8253784769910046
2.157684752547525
1.641368752777872
1.9307853051729986
1.5155393337702467
0.9229041506713691
1.512673888408891
2.226071239340556
0.8423818007741175
0.9702674043759139
1.3859591898964456
1.3689144444777372
2.0014473211500388
1.2256775251230327
1.7898698870514365
1.5843911282840468
1.9751745540894161
0.8529881252556988
2.1943343864957554
2.3087953561653953
1.7315712339749443
0.789521149914095
0.830810425449107
1.0709281693498718
1.8873316944212113
2.0618691986053226
2.2642784842968733
1.3470568644765657
1.7608380889569917
1.733689474064318
1.7459650761341314
1.7665088502122914
0.8088729403446823
1.1746384177137559
2.045628914075786
1.0577623956958917
0.8325917310671206
1.6004952066545823
0.8876467424136251
1.9951902619940658
1.7894206517204228
0.8094425816314588
2.1519186556352445
2.286463819454713
2.1850206153047416
0.7869776343499741
1.8383698954612206
2.218276335509101
1.3214400460422027
2.180733766735494
1.9153462328195325
2.1618741644874078
1.153935311248866
0.8748224709042891
0.8126014569127403
1.672734770789474
1.9017060646764303
2.300555356970704
1.4486263636746044
1.5763224643916132
0.9903469880530406
1.0039505406133464
1.7815830443763014
1.1938919343057495
1.9602703162582262
1.2165945999648762
2.354074223576295
1.7185835369178089
2.231903948040357
1.714027077059604
1.987944565740945
1.1423235501739486
0.9524267070687367
1.5327444942659896
0.8627552355514702
1.1936809765910126
1.1164753884482375
2.3110371417915014
1.0417346591712144
0.7885068201528573
1.7040889901581935
1.5227694297309449
0.7959834673448857
2.3526923032075104
1.1659658256618044
2.1577315432047546
0.7858977368496164
1.7647167181527754
1.1474178522543452
0.8299838294174947
2.000849604285551
1.8059903510001103
1.6855262649137814
0.8028835803102173
1.902375334171262
1.8760850899151236
1.830902779492931
0.7998109823938159
1.2668709211157372
2.253790707317876
1.5142179300835459
1.6798590542018845
0.9746783231739036
1.0250039444927272
1.6690904378895741
2.264704091085116
2.1477478872574016
1.6868738751745866
2.296065312613981
1.695677568384469
0.7873628052595418
1.4708257677206582
2.316451021954216
1.8695979148585504
1.483797153968387
2.333404950344401
2.1012452684373564
1.3867507475847864
2.2840152502277298
0.7978684193483383
0.8189872445729088
2.0590382638034765
0.810805543744519
2.0047287965390934
2.287591846439889
1.6465216122318072
0.9635341597918634
2.346207266387743
2.2148153788856413
0.8655301333140052
2.025239565662869
1.214596072591831
2.34245021917272
0.7875248332571105
2.3368583458919794
2.1002065117718978
2.3383508311416796
1.8399888568596294
2.254611306369634
0.7940225199301438
1.3587107226278496
1.656869444072728
0.7990045348757244
1.42903699205667
2.2202942849661356
1.8193867948271265
0.9479225378176159
1.217592455660419
1.9649499410733962
0.8368105559182296
2.0732858864240296
0.7866539023559632
1.6731633279629692
1.9964818506449034
1.0055243662894109
1.9130708764509732
2.3429688607890875
1.9077133602244503
1.6845725461736742
1.6458680368671834
1.8447482906631285
2.2994744392706585
2.2947302020683695
2.3038361334437947
1.3204506501997653
2.201370473713618
1.5357814070517937
2.2782038424298445
1.185418975866125
2.3175512389956956
1.0066528612119892
1.3886135702494018
0.7909125892866475
0.9145563329723188
1.6786694106094133
0.8798466774180819
0.9874411676569228
1.013633637469136
1.559086165017545
0.8298998686443765
2.3125023609118425
1.537668801893398
1.5632485874941373
1.1038644229346526
1.6670829738265873
1.7456039361385471
2.042553260227365
1.5770171402156548
0.9523386886389157
1.6806129358664998
1.7463055199098982
1.1478798041725173
1.1170053841927874
0.7866595030183597
1.7211803905277796
1.9546905356465667
2.3150366867555627
2.316976209994252
1.6582028196437444
2.2558626309754457
1.3210996632681957
2.019520728754528
1.7002405521505592
1.5110890939840183
1.5237790035754128
1.5158097857211497
1.8216910430144186
1.416712386414808
0.7887101078095887
1.4163632470853413
1.9743666290584725
1.7214934531359418
0.8007363123750568
1.6473738732761922
2.198626157580035
1.7495813087048517
0.8028189353547818
1.0117343112920933
0.9261753894737716
1.7515643819617848
1.8264341007258218
0.8078569716955896
1.054372592831546
0.8041381774290871
0.7979401554026837
0.8236556748839626
1.5647789821101847
0.7928858893033248
2.0073961375257587
1.5930969972711877
2.1689126354429606
0.9986033868053559
1.755599232072542
2.126531740591624
0.9625550357938324
2.205688686041348
1.810283725845495
2.2162127805950287
1.2966440235175187
0.8915819995983898
1.1763634063865867
0.8280165544429244
1.2107208084846377
0.7912012806395593
1.548221603739558
1.713412843934735
1.3577445326346305
1.2463590027217222
1.9124613603735243
1.5652486274470383
2.222600206257069
1.9599891363207205
2.2164431529618014
1.5522321421680054
0.838246944686259
2.1343389438356604
1.8237537856901493
2.345438383310564
1.0199818884417098
1.830973799794247
0.8235934953450427
0.7854849966539049
0.8772057231721776
1.1679547317448158
2.3558641908827584
1.5676950249147934
1.6877728152680946
0.8843740430835095
0.9660296627848562
1.9317735260738644
1.4286017202716745
2.3224107051031706
0.9720652351415812
1.9412019239417992
1.8982035297219386
2.258552818123009
2.1658687395812053
1.8997699143395939
0.7934810171297866
2.13915055218145
1.8720485501516089
1.625851794657025
1.4741999853415415
2.1643874189019643
0.8750365978467494
1.3261742326339967
1.3336677066624016
1.1193459279738454
0.9960234050277981
1.7325921615904687
1.1789314537977713
1.2181852029813494
1.2508005793132662
1.7813472981301839
1.2623758034086563
1.1412863429099074
2.348478831039277
2.1933020452090326
2.202885395873908
1.8394451084827805
2.2148962293248613
2.0872444605751297
1.416295489938157
0.937788676671792
1.7073477575008795
1.0269544104171324
2.0793023543323983
1.0583292910092312
2.3561877785476
2.198862881751045
0.7896291398645734
2.3493450439199908
0.7997398572159238
0.9711398562130575
0.7886215855242481
2.352411431535552
2.2210337627076906
2.343061912110154
2.269689258225906
2.313836341368955
0.8001027475060436
1.2309684691494496
0.8614417388882961
1.5784957100166632
1.4206983419056582
1.4168029941069569
1.7746423750635096
2.3020369928277473
1.7842645652440783
2.290014864585179
1.9210953548177891
0.8942811836491066
0.9281586936450006
1.2782331619991412
2.2451876628496916
2.3496519383886163
1.8508617725984224
2.336822526558615
2.277021779763121
2.0986804894836757
0.8876812651160546
2.331532045610884
2.2982904004058495
0.8273204273517057
2.268424835088428
2.254799511377765
1.987294307959616
1.4403454707196872
0.880310114158968
2.202667869372049
1.6918586231821169
0.8178765889722902
1.9979276554035994
1.3459136276886927
1.8642469491374043
1.5256775234026247
2.335804614319757
2.2149162089251586
0.8162639914032296
2.296652348170987
1.2177739059306607
2.1928395217346393
2.1850041046787174
1.0220559303473093
0.7994850630680347
1.6758536404696032
1.414596972131302
2.3553871906417587
1.8135630304382306
2.2429142853258033
2.1821778224295962
1.3560411217669375
0.7950769119771397
1.5009921220567113
2.3178256436757785
1.4797550306916099
2.2944025757883173
1.1361470954007382
1.9017820333511235
0.7854384127652778
1.8861988234917149
0.9688051064975822
2.1765537479373416
2.148323763340808
1.3582192607381158
2.1662442840530276
2.0031516468862054
1.852735733982596
2.279199368668023
1.3109703194411761
1.6629053481825304
1.0164915742766831
2.346440551811826
2.353963840688372
2.099465671413165
0.8043507618251284
1.3937916893431388
1.9531183060851922
2.001286140559969
2.3009826443358787
1.5680379406989227
2.2914728555951545
1.3455333859472292
1.2423987122346642
1.7807534798870617
2.344267966481318
2.270917320221081
2.111676723773315
1.8495035294262498
1.6261671610129433
2.168767537286311
1.3545413293857684
1.5725672368060095
2.35431854215487
1.5502539438410894
0.9703102149990951
0.8172119716025197
0.8800503797995899
2.146224366683773
1.6845485135229963
0.9190235263437811
0.7972880030851273
1.0281215501412508
2.3560605673096315
2.3485296886472646
2.356192851534579
2.300012533505727
1.8854900343278822
1.239568421689074
2.2159123971022954
2.017617261131113
1.554161913611947
1.6020703310517106
1.891001833385913
2.2949716244839937
2.3359435706662377
0.7874698057926932
2.10198080750268
1.624565424403694
1.5476331685107687
2.354007736084203
1.9714041874668893
0.9320562088045791
1.1805153766623664
1.5730365000756483
2.2268174431996317
0.791998958031476
2.278131794670589
1.626366760123186
1.9573283248217586
1.488235039345253
1.577502907654455
2.2179431479726275
1.0555149142505502
2.1911911257515495
1.746494951250473
1.2920773731457702
2.3454242919138473
2.2878639635619042
1.1778905890384586
0.8106598443333138
2.198631439675046
2.1300875896029137
2.356125903450516
0.9406356715412715
1.3948058609562315
2.3156409501535604
2.234270696382136
1.5531677945891424
2.005060614345861
2.195210909793555
1.7056242277227327
1.5878908777840683
1.4884535120057463
2.1402952450071613
1.1160151814613004
0.7871603635308873
2.0740932129530654
1.3372769217007794
0.8885063557094297
1.770676234550919
0.8787249320193882
1.0563956117997881
2.065364363505529
1.725205132402536
2.1124811448740117
2.0550425020145693
2.354375830890392
1.650056941460025
1.532965660528334
1.3554050278093697
1.4830026741328046
1.5421128820743244
2.3461809255463377
1.8264315776734636
0.8102431154571741
0.7858265575019305
2.2924681910338722
1.0025156736504393
2.3560015531710934
2.071630188886232
2.1765251752185555
1.8111990740562067
2.3262601511074137
1.1702935865038437
1.4155238090725202
2.344702627994349
2.25012202826773
1.3030234983176296
1.5931380911047905
0.8222935883205778
1.054065428472776
1.8889118090694534
2.307520977245383
0.8798675312539368
1.8612739533754419
1.6337564172076104
0.9472330577851203
0.8003984601434053
0.8094091002827943
1.8638754768756447
2.3557570437180106
2.2504619300674276
2.1458470576469244
1.2449244301456435
1.7615717803526438
0.7854056806015253
2.3536796580154253
0.9899424096762433
2.1365794893451695
1.9023186137429915
2.283719275844788
1.3798358483189526
1.5851218188564615
1.3930651073662892
2.1260187702772533
0.7884656470127249
1.5957507200128436
0.7877877279006351
2.15879952605166
1.4782294373404101
1.7051922338468894
1.2425024030978211
1.8101731119742626
2.2364311644161194
1.4639581519458056
1.2595778857439102
1.0644455326865556
1.9183995066832422
1.252482138217754
1.049467898126867
1.8875644655903205
1.602017360495862
1.7266096236094994
2.1460363270663767
1.0653479687455072
1.1122428574084136
1.6377812952180901
1.9490316970779156
1.494345235565826
2.24195515448198
0.8257582568266787
2.0791131611571076
2.2047536360723115
0.7877553547627295
1.4801790207520955
0.8010065482540103
1.2421917308597061
2.2733308765280404
1.6229813132091948
1.3846778583992494
1.7569399565574342
0.7860173607432386
1.2546120474630476
1.3004557881571268
1.5099898154084235
0.785919230413792
1.5540107977917375
2.081598243254772
1.427097648428406
1.9051807664088647
2.3178822544853617
1.0532601216341386
1.5880365555903648
1.6513618850889171
2.351108548605062
1.1896968264991317
1.147194362287668
1.4182920880243508
1.985317927385233
0.8140405996037762
1.990277522407271
1.9916988090914158
2.352553443879892
1.0359635702726373
1.3095760346533172
2.2966281534606154
0.8104676776184041
2.2358361446674087
1.0694406849402753
1.2282009507711358
1.448858002193709
1.6993283291357622
1.3718896296280871
1.591516826247156
2.1534938441804448
1.189453245467147
2.2734446427407344
2.3014866862035404
1.9337330992960018
2.3511594938897593
0.9261155734208697
0.7927521963155165
0.9041436377251101
1.4111612537007225
1.368631412201844
1.2790765014443848
2.2009810336960967
2.138195655918703
1.019994904762953
0.8772703760417253
2.1820676683008853
0.8906972868813035
2.1255114789095813
0.7905609983970348
2.1665008286880743
1.773382146456273
1.711620815920881
0.8178883249233309
2.2070110500424955
1.8491059958742961
1.2648156602229341
1.4966103322212905
2.301376952990043
1.2561239468865992
1.2803704614619063
1.4994622043837271
1.0475748848119464
1.289894646723687
2.3561551345721976
1.6067727613100355
2.2302941035225543
2.15715535805283
2.0184955502481876
2.3189452100504804
1.193581943007077
0.9514425505038433
1.5166982859281348
2.299338160831196
1.0549311414355822
1.4870693231922165
1.9487476026743384
0.7875519420593093
2.194805314979217
0.8425030528037556
1.8653815251381047
2.348214113741962
2.2578014581446584
2.2019879030812923
2.3348591973719643
1.4479975127595877
1.717435084410957
1.333934120071385
2.118741596192394
1.8799176590669782
1.9441735124016664
2.0207878706106444
1.1888823188678745
1.4918097651852495
2.332235666012416
1.142872705466883
1.2022091671859203
2.086035480116961
1.1521552781081352
2.2638960504268826
1.0500728104832011
1.3484975260102623
1.2594036834610514
1.7752581757350179
1.5467285012503793
2.2784785044746183
1.4453206360725142
2.2015306323084314
2.2774749010199695
1.4757828655843388
1.0135254839873813
1.7913312880681318
1.80407860734333
0.7856500567355734
2.3493436513776174
2.3077894688650025
1.1615517930487556
0.7871568782064781
1.8535460000601005
0.9565636846273844
1.2872344974269556
1.725791857680131
1.5561007903599033
1.467203269448505
1.0822054869323576
1.8479313219340088
0.78555698566907
2.2212395853020026
1.992816848522371
2.156073669118861
2.285741871339142
1.4621575987627415
2.3560331111256474
0.9163945006778752
1.5557654865967607
1.7795324170415994
0.786214046030925
1.206841115658929
0.8379771002669789
1.5787433680670655
2.1938257415608637
2.1615474752862958
1.5254918525824517
1.3680755423733324
2.1383272576284744
1.9054290125493545
2.3507847781537246
2.3506532146502517
1.3712170240219637
0.9023948961833257
0.8154187495177416
0.7905330986075586
1.5877440411351706
2.2200654556261936
0.8736260560371071
1.2204411307563225
1.3331652589347327
2.3351817948755267
1.5690280618825139
1.5033937382769245
1.3334210593354687
2.3487971295099865
2.118014896459199
2.2941002203395264
1.2458464836479777
2.3250798400476964
1.4392343083829855
0.9920307334684979
0.8685739500627797
1.058050836861585
1.2430512765659678
1.4351062810812885
2.355893386427743
0.8496233781875969
1.5121747418818097
0.9247293810203474
1.3269435696014418
0.8987995815814304
1.5618682335659204
2.3441760637017697
2.259621506566031
1.3805898860203556
0.8627675034550049
1.4309017176009042
1.7124780294931572
0.7907356218403978
2.3464967479257735
1.5736201538222139
1.5421873307280312
0.7887529835598228
0.7855740185245293
0.8730383606042311
0.8530966926817284
2.1750063751240014
1.3904963527603729
2.3228621385640693
2.3537788074222603
1.131570106973566
1.6182385659054723
0.9106932641708614
2.1149704903862054
2.0345604910473245
1.2873298182849666
2.1319851599912876
1.082788667576153
1.786933718873191
1.6983560499965595
1.0978928690222036
0.7882511950605555
2.3078689781703807
1.1902715680642657
1.4784909314666472
0.7891108451464064
0.8000265583830131
1.3762910059892122
2.0597744528634983
2.1147185280419407
2.026523704646923
0.8025044016225426
1.7869026622637134
2.1729430672880734
1.1579153206373
1.6630735556291019
1.2880654031602632
0.7881571782227086
2.3109180356505163
1.3931087248000664
1.3928252975054587
1.7755953459012823
2.1063158733786485
1.142944199445612
0.9642247517800673
2.1829108577418554
1.869497813974594
1.7213605079282541
2.353477874625568
2.0664484639272542
1.656966939740516
0.7869195729420162
1.6056851727301527
0.884184173043902
1.2989993674157614
2.343584939328605
0.8975962899275355
1.109765527367566
0.8609182748604569
1.3810122322749148
2.2446506288113555
0.930574310526586
2.041938992155037
0.9159463474861674
1.3381898040468072
0.8057505053950073
1.0430139860201268
2.33899934266046
2.035693221536757
0.9527356473010824
1.5891634144866384
2.346923701254112
1.619791939253099
2.144761998375357
0.8118474778382664
1.507577452949535
1.6378429119292814
1.472323014498844
2.039520719347008
2.3286656581516074
SCALARS beta float
LOOKUP_TABLE beta
0.549230823001832
1.066024246098999
2.8919144447757463
2.240757041501078
1.1292125821602208
2.6181188566843168
2.1157592404366694
2.3692728783096646
0.8493623487640327
2.075717825053827
1.653090851829188
0.48271396633293695
2.0232881272833847
2.7005895121474004
2.5936118065892235
1.3849219563992599
0.37523070240616413
2.8039469416446394
2.6565956631256977
2.927152979897227
0.38369032559206306
2.969562649165782
0.5313427486439443
1.237737310219439
2.4698370534134533
1.152714802338084
0.1711442261291878
2.5711285057534146
0.8525090687233736
1.3292584482939622
1.1259881045433844
1.827426961136138
1.3416600095028746
3.0147551878479337
0.5038213880260041
1.3157968753189049
2.331669142914766
2.603826110342779
2.803446056806468
1.380240376538311
2.626118317267321
2.993218069681857
1.5361611071181887
0.34353539533869665
1.2363718984259653
2.2701274206601054
1.8738753033253954
2.6973676150436567
2.588188286267502
1.5817983558733677
0.5290096024216947
1.1059150466187802
2.9959497888326196
1.9583856364629817
1.091003354332919
0.5122366830714221
0.5890578698901336
2.7786993055651186
3.0202971556200993
1.3660284676850543
2.0978444738507442