# vtk DataFile Version 4.0 
Unicorn heart vtk output
ASCII
DATASET POLYDATA

POINTS 1000 float 
0.221628 0.255841 -0.009048 
-0.25036 0.120385 -0.061968 
0.110797 0.08019 -0.103644 
0.0898 0.336092 -0.234518 
0.272362 0.219764 0.094378 
0.131427 0.330243 -0.163421 
-0.01407 -0.189505 0.037155 
0.003965 -0.162883 0.006888 
0.147033 0.425358 -0.114248 
0.004827 -0.241065 -0.075576 
0.03237 0.097766 -0.001196 
-0.338194 0.163545 -0.062385 
0.146849 0.299571 -0.081032 
0.052306 0.028653 -0.076711 
-0.271295 0.145128 0.05257 
0.060808 0.254088 0.031102 
0.054969 0.038848 -0.219849 
0.115483 -0.031027 -0.160586 
0.074238 -0.007368 -0.048725 
0.033387 0.184733 -0.233361 
-0.156235 0.08171 0.078856 
0.005772 0.166117 -0.12116 
4.7E-05 -0.052167 -0.140614 
0.234436 0.208568 -0.007045 
0.355382 0.256205 -0.171325 
-0.095684 0.443273 0.007744 
0.201227 0.215286 0.071868 
0.354375 0.287588 0.023878 
-0.080145 0.121616 0.167469 
-0.088666 0.273205 -0.051038 
-0.019175 0.367335 0.092245 
0.127827 0.260825 -0.00843 
0.149028 0.302115 -0.180389 
0.238355 0.282251 -0.137774 
0.088388 0.021865 0.031355 
0.210154 0.170507 0.183725 
0.236788 0.326928 -0.014729 
0.006764 0.0937 -0.088772 
-0.212643 0.312021 0.114773 
0.097969 0.203112 0.011896 
0.364291 0.104714 -0.008965 
0.168292 0.217659 0.1244 
-0.257583 0.247373 -0.00654 
0.036737 0.275732 0.203863 
0.082899 0.258733 0.097266 
0.176746 0.084705 0.038465 
0.284042 0.146344 -0.000771 
-0.157071 0.121886 -0.020735 
0.374436 0.260042 0.078006 
0.1875 0.047297 0.007137 
0.072445 0.081225 0.035013 
-0.100366 0.380918 0.158902 
0.209467 0.251809 0.004562 
0.1809 0.175746 0.000677 
-0.036929 -0.10838 0.036319 
-0.011013 -0.069066 -0.025256 
0.090955 0.295795 0.22113 
0.12295 -0.01342 -0.119351 
-0.19133 0.184489 -0.06726 
0.067391 0.327568 0.146565 
0.162368 0.365355 -0.059764 
0.150298 0.169075 -0.161114 
0.005401 -0.201843 -0.114748 
0.085464 0.273544 0.03079 
0.051711 0.032495 -0.232733 
0.291661 0.160642 0.09188 
0.155799 0.23367 -0.013935 
-0.223443 0.094129 0.1721 
-0.248381 0.279565 0.010235 
-0.177387 0.254527 -0.000198 
-0.207856 0.367519 -0.032544 
0.109244 0.104695 0.079105 
0.146369 0.461757 0.072218 
-0.13372 0.336231 -0.05954 
0.059167 -0.0282 0.08172 
0.159598 0.096984 -0.171496 
-0.09463 0.001226 0.09893 
-0.022578 0.043754 0.116246 
-0.279458 0.191604 -0.02658 
-0.210759 0.310282 -0.026903 
-0.228305 0.197309 0.196095 
0.140293 0.43847 -0.118734 
0.014285 -0.07659 0.050958 
-0.049626 0.060115 -0.233717 
-0.10567 0.286099 -0.062237 
-0.059753 0.039248 0.168596 
0.263399 0.301105 -0.139078 
-0.015689 -0.013936 -0.036597 
0.079937 -0.159668 0.111748 
-0.18543 0.377204 -0.086332 
-0.092206 0.036494 0.12357 
-0.327877 0.383458 0.07758 
-0.22174 0.112922 0.028988 
0.247226 0.317747 0.085881 
-0.082017 -0.155421 -0.123555 
0.143076 0.251636 -0.013118 
0.322173 0.00081 -0.022428 
-0.162012 0.380237 0.075765 
0.121367 0.145316 -0.111325 
-0.162005 0.153042 0.165754 
0.215152 0.254628 -0.007834 
-0.239405 0.244766 0.026908 
-0.220433 0.119296 -0.117586 
-0.031726 0.08885 0.062085 
0.193474 0.247627 0.188999 
-0.017046 0.179989 -0.195872 
0.11722 0.284441 -0.050221 
0.083495 -0.087989 -0.199384 
-0.014172 -0.2606 -0.103444 
0.270176 0.284841 0.08148 
0.293853 0.196817 -0.044969 
-0.006355 -0.06602 -0.014294 
-0.133179 0.20036 -0.194044 
-0.072235 0.3089 0.02558 
0.236459 0.212386 0.022297 
-0.14855 0.00448 -0.163885 
-0.115536 0.263351 0.167278 
0.30204 0.283399 0.049878 
0.187953 0.066429 0.007654 
0.172267 0.304179 0.029426 
0.168748 0.445888 0.081657 
-0.105913 0.379337 -0.080538 
0.176159 0.265659 -0.018842 
-0.249451 0.445232 0.077309 
0.243154 0.292508 0.066217 
-0.273777 0.199729 0.133959 
0.235234 0.12941 0.031595 
0.070642 0.112653 -0.017471 
-0.177722 -0.008559 0.138515 
0.178126 0.403998 -0.021513 
0.19472 0.380576 0.051267 
0.075333 0.323942 -0.151023 
0.220875 0.346718 -0.062298 
0.231195 0.151508 0.102578 
-0.127987 0.35638 0.146671 
-0.01994 0.088565 0.11488 
0.237553 0.455019 -0.053319 
-0.029035 0.194064 0.130478 
0.019428 0.167038 0.00887 
-0.16566 0.282012 -0.181039 
0.056358 0.19846 -0.105139 
-0.03659 0.109222 -0.160046 
-0.18934 0.324999 0.182085 
-0.173618 0.216387 0.012968 
-0.060875 0.045065 0.223565 
0.140639 0.446763 -0.127751 
-0.108718 0.225012 -0.038772 
-0.055452 0.353304 -0.183363 
0.052334 0.363035 0.051009 
0.165731 0.371712 -0.124649 
0.005463 -0.047767 -0.122482 
0.049102 0.13586 -0.021774 
-0.247734 0.123903 -0.167199 
0.214779 0.081672 -0.153695 
0.048272 -0.133377 -0.051067 
-0.016652 0.384768 -0.030227 
0.219353 0.302308 -0.009673 
0.243775 0.31066 0.063666 
-0.041572 -0.146546 -0.045504 
0.123363 0.162472 0.005462 
0.121622 0.120118 -0.212201 
0.280151 0.209412 -0.093413 
-0.265628 0.241746 0.022772 
0.210389 -0.029011 -0.061571 
0.092797 0.196383 -0.159965 
0.223497 0.106437 0.082382 
-0.264718 0.37943 -0.075812 
-0.089591 0.297068 0.070054 
0.309643 0.325463 -0.196282 
-0.088794 0.118318 -0.124463 
-0.134911 0.093828 -0.100645 
-0.029933 0.073428 -0.208683 
-0.031215 0.121368 0.174605 
-0.031867 0.190482 -0.088976 
-0.069682 0.014794 -0.181561 
0.226854 0.267325 0.024267 
0.357534 0.372067 -0.057217 
0.105714 0.331561 -0.056915 
-0.047408 0.169442 -0.053594 
-0.29377 0.323664 -0.151886 
0.033436 0.361314 -0.075429 
-0.076571 0.327444 -0.131213 
-0.279889 0.199814 0.037237 
0.160814 0.068769 0.051464 
0.091451 -0.20496 -0.168321 
0.060703 0.013316 -0.134612 
0.235159 0.219669 -0.023551 
-0.175363 0.27603 0.173977 
-0.247757 0.230793 -0.079172 
-0.250348 0.160304 0.08405 
-0.231585 0.360209 -0.060312 
0.059776 0.284544 -0.084473 
0.311885 0.066046 -0.128115 
0.18487 0.354868 0.081463 
0.139953 0.296819 0.050036 
0.211304 0.172868 -0.178386 
-0.280275 0.239997 -0.031399 
0.292508 0.141333 -0.103713 
-0.152591 0.259854 0.027352 
0.198531 0.399087 0.195296 
0.051699 -0.245028 0.075724 
-0.000529 -0.200616 -0.02163 
0.246339 -0.084468 -0.006908 
-0.052697 -0.012896 -0.010938 
-0.271653 0.207754 0.045986 
0.186225 -0.037714 -0.105298 
0.022469 0.049787 -0.027623 
0.035729 -0.238659 0.103142 
-0.274714 0.230934 -0.09096 
-0.005407 -0.177502 -0.037626 
0.154398 0.364395 -0.166768 
-0.013806 -0.201095 0.005043 
-0.196469 0.363498 0.007469 
0.059138 0.130727 -0.195955 
-0.134781 0.260792 0.003826 
-0.109122 -0.264605 -0.033438 
-0.068847 0.265082 0.176638 
-0.045431 0.103003 -0.114706 
-0.272372 0.028285 0.071642 
0.192803 0.288118 -0.001708 
-0.23766 0.24296 0.023122 
0.120516 0.335217 -0.148818 
-5E-05 -0.121162 0.005439 
-0.297128 0.175452 -0.167621 
-0.163076 0.414956 -0.04658 
-0.251996 0.197275 0.089877 
-0.228745 -0.029445 0.076865 
-0.050215 0.066026 0.090382 
-0.284456 0.217615 -0.037432 
-0.291814 0.311289 0.096047 
0.17856 0.29343 0.003536 
0.120687 0.196049 -0.216537 
-0.290224 0.319985 -0.004986 
0.05628 0.261308 0.073459 
-0.02318 0.261052 0.228474 
-0.174345 0.161244 -0.009585 
-0.076104 -0.030405 -0.073202 
0.115281 0.26921 0.128347 
-0.108563 0.260705 -0.033883 
-0.242885 0.230192 0.236151 
0.102735 0.473802 -0.018233 
0.21433 0.124449 0.018769 
-0.261569 0.336216 0.13393 
-0.072908 -0.03997 -0.146406 
0.077208 0.054948 0.00227 
0.228585 0.124625 -0.139812 
0.17841 0.143702 0.000781 
-0.001154 0.134306 -0.197273 
-0.134074 0.033088 0.164022 
-0.184737 0.24485 -0.095284 
-0.355604 0.220454 0.073174 
-0.146041 0.422138 0.014899 
0.276583 0.18259 -0.1189 
0.189882 0.087961 -0.104963 
-0.049952 0.044572 -0.010305 
-0.00569 0.377691 -0.087222 
0.117285 0.239006 0.174662 
0.004075 -0.17595 0.024037 
0.298983 0.309256 -0.126107 
0.010468 0.055267 0.129326 
-0.11252 -0.012271 -0.063175 
0.223956 0.294476 0.152141 
-0.11454 0.161229 -0.015176 
-0.087617 0.423652 -0.067832 
0.209048 0.056346 0.083334 
-0.091918 0.105511 -0.058017 
0.220091 0.383039 0.139443 
0.198375 0.145328 -0.128636 
-0.140478 0.324067 -0.022219 
0.040902 0.218874 0.156218 
-0.156451 0.236412 0.015573 
0.083359 0.281989 0.190885 
-0.174983 0.241783 0.183227 
0.182677 0.235856 -0.01008 
0.302128 0.168314 0.138746 
-0.183707 0.297802 0.119006 
0.137866 -0.035908 0.078241 
-0.232076 0.314667 -0.14171 
0.103191 0.324175 -0.011376 
0.35529 0.06965 -0.060192 
0.096359 0.34512 -0.009214 
-0.094776 0.09148 -0.100875 
0.291509 0.030473 -0.029609 
0.056189 0.197399 -0.094264 
0.069181 0.303393 0.12776 
-0.246773 0.330278 -0.006279 
0.01276 -0.009942 -0.022685 
-0.315261 0.058767 0.002003 
-0.094477 -0.038488 0.064992 
-0.095647 0.27383 -0.061268 
-0.20154 -0.119292 -0.013127 
0.179267 0.368867 0.118083 
0.265109 0.135063 0.074489 
0.269725 0.144849 -0.021681 
-0.169066 0.143588 0.015728 
-0.131755 0.124974 -0.208005 
-0.054441 -0.159796 0.103606 
0.207672 0.26956 7E-06 
0.235874 0.313435 -0.177272 
0.120316 0.126677 0.123732 
0.125507 0.297042 -0.005492 
-0.309319 0.241702 0.083229 
0.102766 0.208554 0.00832 
-0.256215 0.076846 0.178019 
-0.228671 0.408031 0.118351 
-0.056641 0.247095 -0.110034 
-0.162136 0.152015 0.177053 
0.158183 0.404959 0.083166 
0.182699 0.108711 -0.021249 
0.088164 0.32055 0.032549 
-0.05589 0.025873 -0.081033 
-0.007768 -0.120064 -0.17287 
-0.277181 0.322195 0.05338 
-0.225127 0.293358 0.000849 
-0.130865 -0.040956 -0.129459 
-0.261161 0.146531 -0.067513 
0.254178 0.2393 -0.062234 
-0.11931 0.233027 -0.131057 
-0.068995 0.157666 -0.029711 
-0.326044 -0.013453 0.0301 
0.2484 0.131993 -0.029825 
0.093967 -0.016782 0.016841 
0.224488 0.324056 0.168415 
0.154272 0.340476 0.072587 
0.055585 0.233878 -0.177457 
-0.135788 -0.066645 0.041945 
0.04805 -0.015923 0.026324 
-0.083629 0.36647 -0.144423 
0.251912 0.234847 0.017001 
0.2401 0.312268 -0.090095 
0.279448 0.429211 0.116278 
0.173098 0.379295 0.074773 
0.16661 0.265548 -0.162485 
-0.092628 0.295847 -0.109362 
0.099003 0.326439 0.06498 
-0.211414 0.313277 -0.198895 
-0.028266 0.047271 -0.114021 
-0.147303 0.276473 0.006992 
-0.113976 -0.097627 -0.184325 
0.009223 0.128727 0.136394 
0.206099 0.174363 0.100948 
-0.04249 0.323824 0.136573 
-0.019003 0.029128 0.095578 
0.396029 0.284385 -0.004668 
[...]
POINT_DATA 1000
SCALARS alpha float
LOOKUP_TABLE alpha
1.4430789611975594
2.136009611310972
1.828607121721341
1.0010800588451583
1.5061049043984698
1.668874742311926
2.2184488746011937
2.185738380396903
1.595871117740851
2.2967955633183994
2.3561348514549953
2.2424178870258817
1.382994306154085
1.8142611411698752
2.1385349791729156
2.320174590973449
1.559647828950681
1.8441736065116647
2.0438563308319395
1.3912277319282946
1.8441616533755694
1.5244434581507935
1.8783763353517768
1.8834729646318926
1.5332711862251784
2.3098193983916127
1.797130374584649
0.7882125905536462
1.3823146136948465
0.8340925680889122
2.30727581008026
1.4610101884066713
1.8021600917521625
1.4518202083823897
1.9760089314250129
2.1349849290329614
2.3354723195573124
1.674436890092261
1.3263215212802946
0.7968805207975154
2.271540910205592
1.6588449246812036
1.542992083837548
1.2844333533614738
1.2562942865006013
2.062421808877672
2.0760677878481952
1.9195100586372789
1.4054197742603336
2.342083167350008
1.7206043801333248
0.9287061868972016
2.299437718626952
2.3561253582548414
2.2583144359186873
1.9289821054304648
2.1425712165189634
1.895439731484089
1.6834360927605687
1.0879752822616269
0.8897708254732754
1.3703277416447743
1.0353862211438372
2.03081731792214
1.9962367815197444
2.093842948286873
2.3331354613715014
1.749163778329113
2.3269081437622186
1.367019570947591
0.8031324565283128
1.4803680381971944
1.9757933565765677
0.8351065256246547
2.119253795674669
1.7804794180651804
1.8256453824528327
1.7721591607569462
2.35543469592437
1.1195121239089771
1.7393444458638598
2.209170328848996
2.16121680660754
1.0949041138806055
0.8976071607732361
1.3849463084215972
1.4122434773587074
1.7873773834664364
2.235782735943996
0.9900488379923436
1.6694607081720743
0.9877945976328188
2.1389541143140147
1.2616547640329578
2.297415823353467
2.3272774149081044
0.8116400831884567
0.9304475888154258
1.4389908466027206
1.6197637098842184
1.3680578648354103
1.8766764018032098
2.0756750818601746
1.6899156414177627
1.5812474190737131
1.8278797434670413
0.9904869078747935
1.9566986733739506
0.9482984952340224
1.8123042639828193
2.0009817338534672
1.9828435544693455
1.6521525126622087
0.7932876798447505
1.60347013914576
2.0505107785396546
1.4071606326213468
0.9300394011695822
2.355374433518249
1.2850035598311715
0.8005460380246787
0.8185334613708686
0.7863931828756967
0.888679523603103
1.38296382121718
1.6519292900580487
2.2683661068524636
1.6636036869642232
2.0048981242302664
0.814729846138632
0.7975941616064911
1.0809715649495948
1.1328944417217963
1.0876670392530314
1.1911156047343088
1.4715749592064322
0.8204834563941618
1.5752504109760574
0.7900338227558145
1.367946209728154
1.5451526427182845
1.324473710684557
1.4649439994995417
1.56928280948354
1.8893115492951658
0.9161745474005356
1.483793625975253
0.838821215851015
2.356058203828842
1.9794644556753171
1.7623162188846762
2.3047443769380056
2.1196841363832
1.9787515349040048
0.944574005361256
0.7858499082409238
0.8790492992461668
1.3278016093437284
2.3255182002160937
2.131695816812966
1.4782081228530404
1.259016413434747
1.59604955770327
2.2557365611857234
1.6585763485561111
2.313410327723201
2.3175565291703086
2.19802760489837
1.6347458857596222
1.740562324218262
2.0661358191864427
1.8089448041296528
1.4032112709209814
1.504035699712236
2.1594439889677703
1.2663991979835139
0.9245471725118766
0.846313857268264
1.5067558732069068
1.2920997781859875
2.317703128537246
0.9040938596625754
2.1364220537242
1.1424674798686159
0.9769199724939819
1.8429730943494746
1.5938574245212394
1.4156732505501413
1.642113468229964
1.8169676348720052
0.9712053925038024
1.993822785357927
2.0257193438040715
1.0633006699133762
1.0470752352417492
1.6448730314142326
1.584365533599862
1.11587869764327
1.3513631639879684
2.1388828531187745
0.9345400998475131
0.8655391873840428
0.8546160925206088
2.3478894332794713
1.763150233982496
0.929849414558504
1.7838962948830048
2.2662465221404124
1.0585706478918913
2.207314359954637
1.2421469582406073
2.265908186728968
2.3538777549497203
1.6008168619544083
1.7686550673793926
0.789760636739966
1.3365843909348976
1.5425176045628144
2.2091075244736427
0.8388100391010326
1.590110542716424
1.2218695421542463
2.0612031687069683
1.833634572322916
0.7871338676121385
1.7244307916303079
2.2665689221269014
1.724865087442596
2.0242485148467315
1.913045941067033
2.2265564846957866
1.5161890006003054
0.9188318621546092
1.2359981294390643
0.8649296224685113
2.324175677500775
2.015211140529148
1.3745528423467914
1.3944708229109004
1.4747887226346383
0.7945541128572643
0.8344299641318437
1.331973181459032
2.3244891842717217
2.355815682758185
1.7215318068987067
2.0105274850227643
1.5748529808513598
1.9999267989076714
1.4416560992633407
1.8873489908095713
0.802239443126557
1.9840167941712559
1.7287640546145522
1.8047071121880984
0.7934576522210035
1.0448564460320386
2.2246691952470634
1.356208232963526
1.8076382406686073
2.12048847730149
1.8463076312137905
1.6560189394072256
2.353592148644201
2.209017092177062
1.736266571927055
1.035564645166539
1.8009357146440255
0.7854209241500337
1.2280833181688198
0.7995018530943343
1.285165219353618
1.422535053412926
0.8013163110834609
2.0125386914588588
1.4011514566846597
0.8521736155926426
0.8448291911418481
2.3429291569770028
0.9815387434889937
0.7985199187643773
2.057619468669304
2.2215887573148914
1.482375433686909
2.009499305346469
0.7873761094406209
2.15083883157602
2.353152173764211
2.0456559972694905
1.214208761242651
2.3219094801270463
2.1512127404663053
0.893160065287208
0.8980674921620847
2.0350558602502256
1.7404490180066954
2.272998488063876
0.7868457947804378
1.4054880476876486
1.498045763637107
0.7880796222545171
1.4971384911786663
0.9289120734962172
1.7375695535929685
0.9367788800078416
1.01009157315464
1.7791629302040675
0.7854579948158367
2.0778129395221963
0.7898173093057871
1.7172940755361683
2.038765739200279
1.0608275082847005
1.153285518666233
2.0846698643728048
2.0304576156024567
1.6071556684512451
1.4983834200186383
1.5002304198501792
0.8244298102928356
2.2291442018624794
2.351761038517845
2.0248564027191094
1.0149373549124592
1.623539324049945
2.1791380297217855
1.9086443124368893
1.8754212806375952
2.2061568958763957
1.4109778489256084
2.3291097351059906
0.8760557828256504
1.6119146015700494
1.1590723221705523
0.99567387129529
0.7881992226292608
1.7686701411642487
0.8078366909591334
0.9195492569467668
1.5872983750420486
1.7020058613187004
1.0341542617251047
1.4438433467806435
1.2868245460042507
2.3561296444957653
1.8951328858567646
0.8670273328599571
1.675799205442908
1.391200301380237
0.9411810788086007
1.9900117670111634
1.013556634213777
1.7573966457326695
1.991872370086585
0.8578213612358426
2.115895172918696
1.605515221922586
0.9720177020857012
1.4389339284337423
2.233839374368203
1.825405537417179
1.4945904749214747
1.3951950620868518
1.6381824785997274
1.2734306973107352
1.3282977160111642
0.7857911059809476
1.8061911475869694
1.0756093903866488
1.7877773989310668
2.225777042394329
1.390365174085392
2.0284282147295474
1.354783133303903
1.1410122318336249
0.9937705345494312
2.169941775939026
2.35236343119774
1.3538810750809143
0.7855849815017881
0.9858229200565193
0.7854457732586966
0.8401529339350438
2.149931369753995
1.6269250017444594
0.7921253977736779
2.065305474560097
1.4954786498418884
0.9591807426178102
1.9410526207600114
1.580446704205965
2.1838353041233973
2.0381694321432375
2.228210486786484
1.502785266425984
0.9261890181046644
1.8266653086822258
0.8308393396255569
1.8820264089144771
2.3449453897396646
1.7995819726404712
0.7867027238209919
1.5790014241221613
1.436327586492292
1.6933375103145603
1.365824403110092
1.9692296983904432
1.4193437197955254
1.104706517853014
1.9146971511011524
1.0448955106647957
1.4861694398778247
0.8546387021278459
2.1215167020090546
1.8085771704921492
1.857632452263247
0.8471290392955079
1.8192477070356283
0.9443886307781082
0.9953788130746051
2.2138231239649326
1.667658936225263
0.7883477654175385
1.7256571981666962
1.449524644673929
2.182900561271388
2.0763230369484407
1.928727979971032
1.3146220781302156
0.8058454762569425
1.2709951018194197
1.1662126910839576
1.8068287516124804
0.8914846589994356
2.3087551654376055
2.0525088052678577
2.339579820566008
2.26545297984119
1.3970739321630257
1.5324242206088012
1.6082488075639856
2.0384835977037046
0.9187727038211908
1.7268969658017077
1.5089721963370868
2.009049545725685
0.8879042900257716
1.4852086633419064
2.0056735327048787
1.614141310474748
0.8268752299537497
1.866970716873707
1.2522207721523049
1.9615435667603924
2.338766446181614
0.8114793687744671
2.1246685141288117
1.405532694624094
1.2630766182228548
2.2741024670034387
1.695834909420682
0.7866651845600696
1.7715312015781037
1.124971110422325
2.0072586072682914
1.0642787561627676
2.3237709519613707
2.240135197498823
2.350757833272037
2.0414723964231554
2.3121962181214513
0.8109899372495607
1.2956752568264251
2.3423107892200004
0.9619031159544255
2.3170136261787335
0.8932771078899231
2.2990917807843116
2.257091883902447
1.1570115259750948
0.9387398131498721
1.648264539253496
1.5613567445946805
1.6294929564841
1.3575769130794437
0.822831202433297
1.3831498051490563
0.7854389636144938
1.1466795966347787
0.87146700613197
2.1513970903940565
1.8266962699844365
0.9216398696282164
2.3555261077440615
1.8212020625248377
2.3557843672904952
2.3026626186772425
0.950663234517452
2.1703459180159594
2.276376456061062
0.8403298301555515
2.3153182770701246
0.8485630647520173
2.243373582451662
2.048452591798687
1.4448892763032886
2.2354858820747707
1.974183423423085
1.6488322008385412
0.7950887682499391
1.639885891273944
1.7698519772187127
1.9877087017346977
1.5745969550283365
0.906360091461185
2.231944363458583
0.7892622319047636
0.8840827078173624
1.915854222451507
0.8562668256567103
0.9394177011389898
0.8114274096521329
0.7889255004426777
1.570763019779081
1.3073598894601188
0.8418970752410113
1.689423605623913
1.944076531695568
2.2644775124948464
1.2268088316549508
2.350574260427939
1.6194188505780278
2.2694232258170413
1.660457620965506
0.8956543534023765
1.419037276392146
1.164471003908602
0.8243289499781671
1.9517445759288334
0.8630475760466157
2.1878967355448293
1.9841469410081531
1.7230287696069044
0.9350486431738595
1.9236950671613475
1.801433567978725
0.8548146575248554
1.676696007264993
1.4906372792246605
0.925190411815882
0.8249699177758227
1.9827017635159776
1.273491480203546
0.8057093905463701
1.5359306932462784
1.8477258082635721
1.7321086106663044
2.0635713873192634
1.627540455129921
0.8424239113323598
1.097460254972973
1.4651268057447815
1.9253384947257437
2.3117595348400175
1.0071969436514767
2.2362475608511168
1.2492681376835169
1.6191312991700222
2.2409663845505614
1.6857604312281764
0.868553668255965
2.3561596214770146
1.7139157829285623
0.9550569330940019
0.7882297444823654
2.2889058806362876
2.1451081986500213
1.894620140975909
0.8053003241155676
0.9513655938607023
1.0879381047014485
0.8741026360197657
2.342336907143135
0.803111821230239
2.259027813070927
1.8661996677571704
1.4945238938829073
2.164974371097987
1.335960260301908
1.6076095776299768
1.5334710468490838
1.7974700400114025
2.356121396596482
2.3556758673921503
1.375015382691548
2.185319355390117
1.6386927619648886
1.5638519213350002
0.7866810872653154
1.5998805300243384
2.1139794838132495
1.9951842539074756
1.5050621508671205
1.289126094553246
0.8706212989129667
0.7858668994216073
1.7339625061247446
2.123569947791888
1.4020639236474504
1.5171629941806946
2.2635765050458065
1.0934807006570844
2.331180498727271
1.3503115998059485
1.901834991472447
2.323066946440917
2.203797621380092
1.159734170650492
2.305520905384301
1.1156768501899812
1.150219792990059
0.7980986886767758
2.237090707137019
1.135845008532643
2.264052902019939
2.287337818210672
1.666743414081904
2.1835276295803046
2.2382389095015927
1.8203628383612565
1.3135524107308032
1.7110955553233833
2.1541740387456456
1.761264754755501
0.8572419790402204
1.0747259044100141
1.3062071599602547
0.8649189601072419
1.3364372950825911
2.32390262861589
0.9707860897027418
1.1196108015022537
1.7971625377709992
2.115178210200562
1.2558235335177603
0.7974546054051891
1.7748339336840717
1.102645421612809
1.466186296802802
1.5671547214876231
1.7216668475922512
1.4735974312209064
1.9430069854780283
2.17593648985645
0.7859926514563174
2.3297997496144034
2.1323066136638413
0.7866867274220822
1.1884918268745996
1.938356302665567
2.0012533302529536
0.8361476585135655
2.004664000567594
1.698347748861942
0.9003847084266297
2.242720982896096
1.6880734781782565
1.6802349505699354
2.3278331670097385
2.138420179159666
1.6598560732610037
0.7912958796575538
2.2491312654393862
1.3136983589369442
1.7855304529576328
0.8710698046263438
2.22386495725495
2.3561822065033393
1.8707626331916756
0.8639478958392699
2.189935907558649
0.9855852818292717
0.7968195819454821
1.4762485321405765
0.8012056521548291
2.3551659616102354
2.1469572235336165
1.3240061818974824
1.3453737173178817
1.6552159242370115
1.660854529156739
1.5779802785988915
1.5800106578050834
2.230319462034093
2.3560724728313747
1.713728051906718
2.35256405833632
2.130375093372756
1.5066212283456026
2.1212950732513036
1.20206183729924
1.72607792226694
2.299594954030621
1.4760008490217573
1.0755510696619248
2.0536153071503076
1.2617135600920926
1.8960932661325587
2.120094446104008
1.2392810507418275
1.447056910028877
1.8210090918923798
2.030109819425768
2.1056824693732104
1.7677001942036858
1.409609342532886
1.2429758063796845
1.448914610578177
1.8578825317189729
2.1423551877457587
2.304845606450223
2.3001135944085647
0.9270261403662013
1.7310171363462805
2.3452439051073015
1.9033478088205422
2.143480854468428
1.6405778364217607
1.5093958365090268
1.6940010900150546
2.2964171070928217
1.8661393041416106
1.8850746531202134
1.353174718593089
0.8389311177961523
1.3817172261245654
2.1135610507036944
1.6441375028906307
1.865725180759307
0.8547305050169576
1.1207631716245423
1.584448898228017
1.684825647042078
2.27812390946501
1.150045000574766
1.1923120617917056
0.937901450440638
2.1681181035056554
0.949221174555789
2.1772594423780154
1.0778994277317306
0.7854644464505675
1.318363987499854
1.2432838796284615
2.2599440290209167
0.7862258032458985
1.7122425993310735
1.0715326686271938
1.4279953700620354
1.755441678224765
1.911151269635296
1.617193061042535
1.543433823589488
2.0854481728404264
1.8227466240010404
0.8683983614182048
2.267472608895006
2.098786343414964
2.3546577828076387
2.0908000510228884
2.277021487570625
0.891694696677814
0.9674068170861321
1.7288018518458252
1.303651119930786
2.2801942517084184
1.006643905290349
2.1846804474680224
2.208802005283405
0.9080952991120845
0.9250390527105921
0.9574290963898064
2.071611879704514
2.2459881483262385
1.8728009869509477
1.5276062117463955
2.3061623540885385
1.0144600457938149
1.7265759799156526
1.9824033537430936
1.5749828936107404
1.2290590565662642
1.1969142753446274
1.210340690890901
1.6403965132479534
1.2406041894607447
1.2069189877851434
2.3560606426970745
1.7046495100602712
1.8460055898964596
0.9623436202035591
1.989063054127527
0.8635448300553659
1.8743621974526519
1.4308911507199227
1.6082404397207355
1.092476720167861
2.1159378542999683
1.5825080077949623
1.2141259486439955
0.8561664424588263
0.9191117888611746
0.8069499907424912
1.2179807381451728
1.7854205595061583
2.2803093965203898
2.2131067380277836
0.7998274224165011
1.680327776093117
1.6533455031293964
1.4546612328449828
2.1626058291663393
1.173103808841395
1.2279981307189536
2.0512949057098306
1.0359200354505933
1.6163283469660452
2.2526490822569722
1.0948042293210216
1.482496581847318
1.925543231706584
2.046460178889461
1.9398717120592157
1.962373715531727
1.217147886037749
1.767972056873653
2.191952512298569
1.4918173608790632
0.8266038803593962
1.7829820048222353
1.8277577031974126
1.794081330723375
1.15786923748286
1.0066313590042484
1.9185849524315677
1.4375097271836255
2.3367896633403067
2.3552628817663415
0.8246568916702921
1.9594309150175695
2.3475551515455315
1.4991135072416895
0.842003019902042
1.3334619885893735
1.3970794625727947
1.634836666329569
1.642951055870766
1.0875225120465952
1.8831341141238374
1.0416296074276914
0.9439502262476434
1.1934984097042642
2.0808881979647778
2.2032358566927757
1.7263335307210568
0.7880075567234192
0.8050974510029141
1.4440570843326175
1.8176122068608933
0.7942146395441598
0.791172058391749
2.1700879143437186
1.4859887887420211
2.190859373208786
2.182530870241202
1.405079163143725
2.301026558975548
2.075434785581445
1.211839146223306
0.7886018945299111
0.7866812319402946
0.7868186943339124
0.8135427077951733
2.326374357067384
0.8548286998018441
1.5108075545453001
0.8021904973492108
2.2584031751213485
1.1952483422353863
0.8232416002909408
2.3457197723226266
1.6187985074057976
1.4996587820932512
1.2229052615804767
1.1461304649918456
1.3285529902686197
0.8169863261171052
1.0785577556667398
0.8041868087136161
1.5734291387328594
1.792031475480637
0.9139827925877984
1.9293790511252427
1.5857504254286388
1.6776973689973411
2.2111350208938036
0.7857148472096426
1.448074052679114
0.9903630449169878
1.4061989049149968
0.9792157803815511
1.5132463235116949
2.3296667163488674
2.1805408459867768
1.4225678287034997
1.9622319766197753
1.477232133822242
1.753195761041616
2.065094459845648
1.9786089729702085
1.625057439142845
1.5876654255273173
2.2961871063549975
0.787367155123859
1.0374580574062262
1.9499489784576631
2.3552789051171996
1.5707963267948966
0.8315363470515383
2.2644027901869226
1.1609435923641918
1.3533612926116452
1.179239311367541
2.13207070789961
1.098543060368713
1.2033729766148897
0.8341222833934182
1.4610120144946386
1.7612240167799555
1.5718775364420081
1.139753495959074
0.8469966278710367
0.9968550826622395
1.2796680535630571
1.6339081647356877
0.8773301498563896
2.306503490979214
1.5197551071289914
2.2876190607881854
1.9592937780367365
1.6782121444898852
1.6680226768285746
1.363972416868576
2.278436077424246
1.0833092362413757
1.5495278082884456
1.2517005191324506
0.8008611424794125
2.3001821542981413
1.7172262795971824
1.6809235900320634
1.3604080719172784
2.211554885942654
1.1928747517848817
0.8367728562669685
2.0320069961400726
2.1016025044965527
1.3312959622212621
0.7889662146004455
2.1880365513288824
1.4401611831738452
0.7921152517898478
1.6419433388821145
0.7918742189021832
1.8219749382411357
2.350758728687825
0.944470619861963
1.9486666486005955
0.9285110217014149
1.3065279161817085
1.0354625929769294
0.8182854384395456
1.049614844797186
2.0373504678027716
1.2623496971388593
0.7890074345217791
1.0375717994144513
2.2559715137015144
2.318932052660263
2.2150621898494913
1.5459279244978563
2.329336428374589
1.6426038244795858
0.9259181175787576
0.8188869337489374
1.5268598247854792
1.5065174728341573
1.832352713898834
0.8675463224926492
2.2803956549286255
SCALARS beta float
LOOKUP_TABLE beta
2.1620849951291166
2.252199114940095
2.755083693078283
1.8455209143181972
2.9437482000154014
2.315522405202983
1.0455578361464317
2.3227081101413702
0.984463022808785
2.0448823326999164
1.5808372549570928
1.9248860426960293
2.9498875152815316
2.8674974682850536
0.8345449199874714
1.9186967352219297
2.6545177805387583
2.5231986986928017
2.5982270063705095
2.720020106061602
0.34295410750952815
2.980702682749637
2.6466990792969898
0.4936334857235837
0.2057689717734852
1.8854476618386617
0.5532028406108187
1.546336058295192
2.668210103561723
1.9700097230514184
1.965232949003511
2.0424503910390546
1.342797347206141
2.8108603350765504
0.5031808532793192
0.7371066573944073
1.3317441616259662
3.0088674454714583
0.26302095086083027
1.6810322145725454
1.9769548707235438
0.21948501621283462
2.6919939294752306
0.32594324191478935
0.34069580641721464
0.7724730357188607
2.5009244421447097
2.744572703308341
1.0944073681925526
1.734862116659594
0.17533200460727735
0.9173431604784685
1.712512693400193
1.5588844482786752
1.0882620701309076
2.701261001860755
2.0703239755711027
2.7921009678027753
3.02803835662289
0.5757135284213857
2.037625854807173
2.445379349827954
0.6358876708648085
2.0248529177820167