# vtk DataFile Version 4.0 
Unicorn heart vtk output
ASCII
DATASET POLYDATA

POINTS 1000 float 
0.233075 0.25684 -0.016763 
-0.25552 0.115787 -0.067573 
0.106675 0.076453 -0.117315 
0.071416 0.340539 -0.239849 
0.279926 0.222353 0.054497 
0.124904 0.329646 -0.169459 
-0.036759 -0.210004 0.054876 
-0.002119 -0.178662 -0.008927 
0.142713 0.425286 -0.111378 
0.004103 -0.246021 -0.078146 
0.015419 0.083264 -0.00142 
-0.345971 0.15924 -0.065671 
0.14651 0.304195 -0.10492 
0.054867 0.022959 -0.098916 
-0.276593 0.139113 0.059834 
0.083428 0.200695 0.010073 
0.049175 0.03897 -0.230791 
0.111632 -0.032761 -0.166522 
0.074981 -0.011819 -0.056196 
0.03135 0.185653 -0.238345 
-0.160153 0.076137 0.097935 
0.004476 0.166504 -0.129494 
-0.002892 -0.054494 -0.14756 
0.241204 0.203006 0.009236 
0.374105 0.259631 -0.080133 
-0.156331 0.38029 -0.020713 
0.199359 0.214511 0.075143 
0.363564 0.289759 0.024109 
-0.107999 0.133036 0.108698 
-0.084702 0.281847 -0.055049 
-0.047423 0.310794 0.065936 
0.134269 0.26119 -0.011721 
0.199884 0.29925 -0.16857 
0.231385 0.284861 -0.159451 
0.090237 0.018711 0.037997 
0.210952 0.168857 0.185744 
0.2045 0.279084 -0.000662 
0.005849 0.092547 -0.099797 
-0.209912 0.321001 0.149632 
0.10747 0.208753 0.010673 
0.372683 0.097025 -0.01386 
0.171198 0.216401 0.138595 
-0.261531 0.247601 -0.014735 
0.03756 0.277557 0.209786 
0.084325 0.264458 0.113908 
0.195155 0.068932 0.063342 
0.282512 0.143348 -0.005283 
-0.158307 0.118738 -0.028801 
0.382681 0.260765 0.082277 
0.193136 0.041969 0.005853 
0.075703 0.075687 0.071283 
-0.09643 0.387623 0.164855 
0.22506 0.247221 0.002243 
0.186699 0.169793 0.000776 
-0.050436 -0.123873 0.047086 
-0.013309 -0.07288 -0.034704 
0.083629 0.292013 0.216631 
0.123625 -0.016801 -0.128811 
-0.191369 0.183824 -0.073101 
0.065517 0.333172 0.155669 
0.146295 0.380979 -0.071061 
0.145823 0.170222 -0.166641 
0.002882 -0.159663 -0.057505 
0.121195 0.263187 0.012633 
0.049295 0.030287 -0.237077 
0.293028 0.158313 0.09518 
0.178089 0.220534 -0.009851 
-0.222851 0.092313 0.182008 
-0.208004 0.255538 0.001762 
-0.203101 0.256118 0.007335 
-0.208712 0.375835 -0.034799 
0.106192 0.105104 0.083597 
0.143708 0.459374 0.067196 
-0.110939 0.365229 -0.073153 
0.060937 -0.031582 0.086102 
0.159341 0.09254 -0.1919 
-0.093802 -0.004084 0.118609 
-0.023071 0.040171 0.133429 
-0.284329 0.187417 -0.026349 
-0.210419 0.313849 -0.033341 
-0.226282 0.195567 0.206183 
0.186293 0.368754 -0.055749 
0.015125 -0.082757 0.057788 
-0.028674 0.074852 -0.209214 
-0.0954 0.306298 -0.07752 
-0.072807 0.056447 0.078753 
0.260559 0.302896 -0.150135 
-0.015786 -0.016181 -0.04655 
0.092117 -0.177132 0.12557 
-0.184151 0.382951 -0.09294 
-0.090062 0.035567 0.132889 
-0.329043 0.388361 0.083169 
-0.223822 0.109695 0.032879 
0.245184 0.320267 0.093358 
-0.085072 -0.159357 -0.125584 
0.108036 0.167626 0.016309 
0.317457 0.044307 -0.007954 
-0.156674 0.387667 0.082416 
0.116104 0.147619 -0.128543 
-0.162584 0.152068 0.185605 
0.223011 0.255782 -0.013328 
-0.243114 0.242593 0.033437 
-0.222641 0.116489 -0.121819 
-0.033257 0.086634 0.080467 
0.197481 0.247539 0.197419 
0.005242 0.165705 -0.143451 
0.11414 0.291077 -0.057864 
0.079021 -0.090791 -0.205686 
-0.000399 -0.173517 -0.018948 
0.267996 0.277254 0.051627 
0.293297 0.194065 -0.050298 
-0.007029 -0.07091 -0.024357 
-0.14005 0.198241 -0.219946 
-0.064148 0.328251 0.029045 
0.239642 0.211801 0.040185 
-0.152459 0.000206 -0.170901 
-0.100283 0.267109 0.189726 
0.296936 0.289593 0.044344 
0.193131 0.059503 0.007257 
0.172861 0.307025 0.038684 
0.162374 0.465576 0.086578 
-0.100176 0.387324 -0.083546 
0.177103 0.272864 -0.018387 
-0.247297 0.462342 0.0896 
0.24543 0.294481 0.076408 
-0.269476 0.19891 0.143998 
0.248021 0.11923 0.03822 
0.071226 0.111549 -0.029281 
-0.181789 -0.013314 0.147603 
0.173368 0.413181 -0.024754 
0.191503 0.38677 0.052652 
0.062826 0.345122 -0.184631 
0.214063 0.367546 -0.101604 
0.228237 0.176338 0.062282 
-0.123116 0.360127 0.155281 
-0.02731 0.095867 0.041893 
0.237546 0.48427 -0.064678 
-0.029549 0.193982 0.148888 
0.018968 0.176387 0.010149 
-0.170545 0.285562 -0.19793 
0.055736 0.198967 -0.124899 
-0.032494 0.114611 -0.139301 
-0.181863 0.325822 0.189787 
-0.176286 0.216419 0.034106 
-0.058506 0.043035 0.229377 
0.132894 0.454699 -0.134379 
-0.112694 0.228431 -0.077821 
-0.063437 0.362923 -0.178663 
0.089864 0.293789 0.049392 
0.187511 0.339166 -0.056906 
-0.000597 -0.052438 -0.146115 
0.056583 0.128351 -0.018181 
-0.245594 0.119994 -0.162142 
0.191211 0.070882 -0.176208 
-0.00708 -0.068434 0.010926 
-0.008407 0.419075 -0.028768 
0.222016 0.308181 -0.013646 
0.246454 0.314391 0.078247 
-0.060928 -0.173065 -0.055089 
0.132077 0.153186 -0.006039 
0.116208 0.121393 -0.225873 
0.265166 0.23286 -0.024541 
-0.268654 0.241531 0.031281 
0.228067 -0.051029 -0.077119 
0.087486 0.195884 -0.165613 
0.218806 0.104073 0.08136 
-0.262803 0.337642 -0.058719 
-0.151501 0.240181 0.015993 
0.290106 0.324591 -0.209871 
-0.092219 0.115226 -0.142234 
-0.13338 0.091717 -0.103933 
-0.032886 0.07187 -0.214909 
-0.054225 0.135083 0.094702 
-0.034239 0.191782 -0.108376 
-0.071751 0.013414 -0.1831 
0.227392 0.269834 0.031849 
0.363186 0.382528 -0.066322 
0.087147 0.355821 -0.069676 
-0.047838 0.171176 -0.080578 
-0.276459 0.330554 -0.128814 
0.099889 0.275741 -0.040498 
-0.073626 0.332226 -0.134963 
-0.306003 0.183687 0.056866 
0.132233 0.099102 -0.007639 
0.079523 -0.14818 -0.106288 
0.060955 0.011021 -0.142508 
0.237559 0.219422 -0.034257 
-0.170544 0.282447 0.214507 
-0.250184 0.230184 -0.087675 
-0.250432 0.155022 0.104397 
-0.235622 0.367003 -0.067567 
0.090654 0.255517 -0.026902 
0.310976 0.061813 -0.135663 
0.183524 0.365318 0.097082 
0.137285 0.310907 0.069951 
0.209941 0.172075 -0.189042 
-0.2862 0.239905 -0.038178 
0.276204 0.177273 -0.039626 
-0.151882 0.264861 0.049237 
0.188324 0.366062 0.155465 
-0.000243 -0.187858 0.023565 
0.055456 -0.131481 0.020977 
0.21615 -0.02608 0.02613 
-0.059503 -0.020769 -0.009491 
-0.27782 0.201476 0.077603 
0.163276 0.029781 -0.045049 
0.022914 0.044827 -0.050002 
0.050518 -0.262554 0.118917 
-0.280276 0.238064 -0.080474 
-0.007734 -0.184623 -0.044115 
0.15297 0.367933 -0.176521 
-0.002802 -0.224268 0.020376 
-0.188118 0.287033 9.1E-05 
0.054847 0.130582 -0.200781 
-0.138714 0.258498 0.015036 
-0.054754 -0.208514 -0.04088 
-0.063805 0.266007 0.180403 
-0.040549 0.104754 -0.052828 
-0.283012 0.009684 0.088452 
0.197235 0.297689 -0.006384 
-0.246771 0.242594 0.042066 
0.115364 0.337787 -0.155398 
0.002496 -0.126307 -0.002709 
-0.297749 0.17334 -0.175181 
-0.158395 0.421737 -0.047146 
-0.24835 0.195832 0.099083 
-0.231029 -0.036396 0.081444 
-0.05138 0.0645 0.100089 
-0.287491 0.216851 -0.038801 
-0.307334 0.294547 0.052138 
0.163169 0.23917 -0.041521 
0.111833 0.196978 -0.233507 
-0.288252 0.329683 0.003222 
0.055718 0.263897 0.080436 
-0.011407 0.26839 0.232976 
-0.182016 0.154705 -0.012003 
-0.081105 -0.039169 -0.089386 
0.115808 0.271172 0.138019 
-0.108484 0.262119 -0.041692 
-0.21201 0.232433 0.259313 
0.093124 0.482583 -0.019929 
0.201443 0.170684 -0.002772 
-0.265056 0.341735 0.155916 
-0.074384 -0.042993 -0.147518 
0.093183 0.040259 0.001698 
0.226499 0.123208 -0.149033 
0.18641 0.133654 -0.018066 
-0.002885 0.134262 -0.20812 
-0.130636 0.029634 0.170734 
-0.19619 0.253296 -0.030797 
-0.362825 0.218482 0.078862 
-0.138353 0.430509 0.017109 
0.265521 0.173345 -0.13785 
0.191529 0.086422 -0.114501 
-0.053335 0.030638 -0.0671 
-0.010906 0.412794 -0.093576 
0.115153 0.242395 0.179416 
0.001675 -0.183484 0.017721 
0.302055 0.311716 -0.137123 
0.015353 0.052778 0.139333 
-0.114936 -0.017665 -0.070133 
0.217287 0.280535 0.104839 
-0.116255 0.160307 -0.025929 
-0.094036 0.416193 -0.067069 
0.211564 0.052853 0.086492 
-0.0975 0.102322 -0.076845 
0.221073 0.388439 0.146776 
0.193948 0.14334 -0.136885 
-0.122466 0.3488 -0.022455 
0.044696 0.224648 0.171336 
-0.149047 0.244813 0.017597 
0.084875 0.28641 0.205276 
-0.158456 0.245209 0.205908 
0.139729 0.26184 -0.016743 
0.29781 0.166275 0.134947 
-0.179987 0.299413 0.128272 
0.131825 -0.011788 0.064872 
-0.226088 0.319687 -0.139106 
0.17418 0.24009 0.008254 
0.342082 0.119514 -0.004715 
0.090995 0.353903 -0.011253 
-0.094367 0.0887 -0.105331 
0.294556 0.026936 -0.03262 
0.054412 0.200268 -0.126499 
0.090848 0.275343 0.074966 
-0.250219 0.338581 -0.005539 
0.024997 -0.028147 -0.001696 
-0.321358 0.052486 0.002698 
-0.101349 -0.049234 0.082921 
-0.094882 0.277665 -0.070822 
-0.202409 -0.126235 -0.010464 
0.17916 0.335954 0.080191 
0.257596 0.178255 0.04263 
0.244482 0.183848 0.007903 
-0.173515 0.138711 0.007298 
-0.132389 0.123067 -0.218973 
-0.052278 -0.168206 0.108905 
0.200452 0.293154 -0.001791 
0.232295 0.314938 -0.186155 
0.121058 0.12714 0.130068 
0.113985 0.318035 -0.007672 
-0.312785 0.242388 0.0925 
0.11074 0.21222 0.005062 
-0.254655 0.075245 0.187394 
-0.222711 0.414 0.123853 
-0.057035 0.250779 -0.1146 
-0.162229 0.149728 0.187625 
0.148532 0.413103 0.083292 
0.204552 0.084391 -0.057658 
0.073159 0.349035 0.036353 
-0.055613 0.025129 -0.08602 
-0.009367 -0.124235 -0.179991 
-0.27543 0.327748 0.06161 
-0.229154 0.298309 0.010852 
-0.138003 -0.050532 -0.143463 
-0.265885 0.141351 -0.076605 
0.258207 0.238245 -0.091218 
-0.120807 0.234196 -0.14713 
-0.070658 0.158369 -0.039632 
-0.322175 0.05092 0.003624 
0.251617 0.126924 -0.033979 
0.098996 -0.021761 0.017507 
0.233792 0.312022 0.146895 
0.149378 0.351928 0.087034 
0.050349 0.233604 -0.18264 
-0.139754 -0.071387 0.046831 
0.050427 -0.019296 0.035313 
-0.070684 0.363458 -0.135329 
0.260118 0.232904 0.018781 
0.237004 0.313686 -0.098777 
0.276417 0.381093 0.099997 
0.165281 0.389738 0.0817 
0.180213 0.261941 -0.074886 
-0.092149 0.300555 -0.119061 
0.092247 0.33024 0.069445 
-0.212332 0.315651 -0.199147 
-0.031495 0.042996 -0.13491 
-0.119689 0.309397 0.017083 
-0.077548 -0.051167 -0.144863 
0.010875 0.128584 0.145058 
0.206603 0.173483 0.107558 
-0.031971 0.333484 0.149626 
-0.022915 0.039537 0.014695 
[...]
POINT_DATA 1000
SCALARS alpha float
LOOKUP_TABLE alpha
1.654910337155199
2.1712223748788984
1.4209928751707408
2.019531208598946
1.6795251585048128
1.7397290783891233
2.2172613675239443
2.142125271293732
1.1002122237338698
2.328758517362367
2.356144992180358
2.3556538350400262
1.3896778239236343
1.8479009682966931
2.1324245733463227
0.8737376021064623
1.7190955365827822
1.250688677822847
1.9798943325623117
1.3566138999510562
1.74615058868146
1.6134334031572881
1.9520993881848976
1.9107991297777758
1.435656589195368
0.7857256285290628
1.8860769588324204
1.0670449761009133
1.6946233122958625
0.8290620010368657
0.8419376228348225
1.5719827798769026
1.4277836574902214
1.4121829336082932
1.9410568926998637
2.3270995614278625
0.7890368536963124
1.641591940679981
1.3719801299534837
0.8001073830731479
2.116027640157637
1.7560039390964366
1.4163615063277328
1.1509821890679566
1.1851449117372734
2.1568455892539182
2.107382564288789
1.9902503671458476
0.7875840859184057
2.3490449971095924
1.681067826719599
0.8885671679087233
2.3023035385762034
2.351423356184148
2.2527752877803686
1.983642968981083
1.209105983240145
1.8769290618759342
1.7212709989260082
1.0663277967847877
0.8825242594673828
1.6684245505578377
2.0457500798901567
2.142807427489704
2.0278643682785855
2.2262094698844064
2.354746172125395
1.677268341124471
0.8709128844231492
1.3067530536749306
0.7934982003072504
1.3560248025334356
2.1718946648388604
0.7888441099417898
2.205620618943821
1.8894519812261605
1.81638621191514
1.7049174971675372
2.3177109646264844
1.0482043912553054
1.6937139334850404
0.9211265520817138
2.1451123596694357
1.8386746786661374
0.8392782222654408
1.6926559888907564
1.3332023163730105
1.8326175946744194
2.2854243005109245
0.9110962125813961
1.3683461845939617
1.0374088705342674
0.9020527776038749
1.2142437986737036
1.0436789436642906
0.8034546305207236
2.331678335662617
0.9264224744870636
1.6019032720690771
1.5943858313310246
1.4759216226044698
1.7879856670484058
2.2311404538456565
1.6708347601961748
2.2175882102515474
1.407807334568923
1.0337995472931618
2.063987454783184
2.1447683656774195
1.3456933223140366
2.014911273240494
1.942545940477825
1.8276208149018873
0.8028267285669584
1.5395841372518928
2.047895520438965
1.7007009162931965
2.222517065403082
2.3507800067763047
1.2851045880162482
0.7886087362169565
0.790048360435686
0.7856011875930143
0.8867722790725013
1.413790384275862
1.5797385950496576
2.3383950841515913
1.651288935258696
1.9721874592713708
0.8251093918235102
2.2636745984525346
1.1312493027720623
1.073683038108309
1.7364275722355067
1.23613323839195
1.6032061319323805
0.8300933261247648
1.487414365408292
0.7857582579321956
1.5963271981713913
1.5612147794392337
1.7414566164569365
1.7533387515971093
1.5321146720497412
1.9802243373861252
2.2050931686948902
1.5562570187582196
2.303120684526165
0.7895877899362075
1.1510534154901184
1.7266500073766318
2.283913404232882
0.8081475025796441
1.198376355077818
2.2119617345059286
0.7882891038601254
0.9357121843961124
1.1803518429556341
2.330939649253978
2.15506019760783
1.4534767050000437
1.9406019603015356
1.6516701807345036
2.2161780254507075
1.6125145106703183
0.8863306025215363
0.935681011621345
0.9199126257534723
1.7190866057023455
1.779018784429078
1.111108744448846
1.9233838908015335
1.6795649314187961
1.552633094416092
1.3660885700136367
1.333551906135507
1.0037233802377508
0.8200354325744283
1.3809694119057538
1.906080892068266
0.8170311062228534
0.953701833226334
2.0618603682742234
1.9137702014471314
2.108041292044686
1.8155210975391551
1.55600632935675
1.389266403037158
1.5645020783545187
1.6906951113704694
0.9317510397106065
1.0875679445101398
2.007626543649509
0.9739275433946982
0.9900304291315855
1.628450292976384
1.5911253482218093
2.0094126660707246
1.3848456435008976
1.2095913621753187
2.185910898383254
2.2506067572541277
2.336770846337576
2.355793412767578
1.8274146565464209
2.202062151089705
1.8363205863262335
2.3473551178248218
1.67823245931033
2.1733139720248253
1.270734079483046
2.252546529403299
0.7875792015345952
1.4678150163272323
1.2244797342468987
2.350448653779952
1.2860925256371554
1.6220490537033097
2.154248937606206
0.8808373764147583
1.5699256036299485
1.1063271469989449
2.053916524508194
2.262706872449012
0.7860289348348068
1.693623011074806
2.24472606286401
1.6702017114451926
2.241221238579411
1.1166895821629859
0.8983031442831344
1.4876024228379197
0.9322537303586833
1.11185730811077
0.7957062970834623
2.326813698544691
2.0446263176787656
1.3305850318418422
1.4133410956711687
1.5783979100226455
2.3510224699410056
2.251315824175526
1.257955672447844
1.1207943899640271
2.355855041213626
1.7013840680654184
1.9922913378819682
1.5369832468269677
2.0771672576277593
1.6493117639578592
1.7478567285715227
2.3394147198348643
1.2277817076206001
1.7407602069205732
1.788625572046348
2.316501041619181
1.8970949688232688
2.235293248077975
1.3650423747702916
1.908175198700665
2.2122053319531583
1.4821003560191963
1.5865710165509976
2.353790498615779
2.227718149788878
1.7749677965981012
0.9883360573641214
1.886970057093696
0.7874255761041131
1.1437603933712575
0.8233100156508524
1.3438753549234652
1.66561769664397
2.2932242179639313
0.7889324303261178
1.410064447327327
2.300471614437549
2.1110619908867414
0.7854304147377709
2.3037037948627317
0.8010118472445116
2.098698715632016
2.2367802000538095
1.4318777554228341
1.219644986737416
0.8010816634839594
2.1114136550255957
2.3433520929118683
2.0171724130258557
1.1950123140616147
2.2996165203004124
1.1919202831715037
1.9196593262312478
2.355669897573509
2.0147849795162402
1.6616811880119327
0.9098676004052988
0.792368103917606
1.3971593792852952
1.583360774442907
0.787335246472818
1.4455225773971443
0.9468308284775611
1.749407309456089
2.167742057808083
1.913964139694917
1.7397148778853828
2.318477229144745
2.063995799526377
0.7941296748070837
1.3361471310670978
2.050262652246485
1.0955953369016052
1.2587715363151324
2.22678103568305
2.143344972079863
1.5962162726631945
1.483351583411889
1.5469310015850637
2.3442567590495482
2.2858541446635225
2.331038526758005
1.3619039536995197
1.0456465122040235
1.6620250578139542
0.8620352263019158
1.8941244024219892
0.8876402121626072
2.1674943308415724
1.4606638423205782
0.9749914904270295
0.8722623987959409
1.4411390601977938
1.0661407976318515
2.1969077071404977
0.7856071394017538
1.7877207076398751
0.8355416065170497
1.87696743999382
1.7012124682643235
1.546745392393049
0.9404883120839327
1.73863608419013
1.4485028569895555
2.3245257181274215
2.0959256894316725
1.021711783531138
1.4073020998542183
1.7483542823442955
0.977708684487501
1.1849289541482348
0.8932346099331359
1.7481130739021276
1.9942186664658543
2.2858643781068544
0.860078063948039
1.5858106079063725
2.052573381492265
1.451428180993625
2.3524773654355187
1.7537150890846598
1.5986162677587439
1.8007191280307715
1.62841692711841
1.3166158221649256
1.4050762878642675
2.3554773096827
1.8817449098982835
1.8591997116087104
1.8015612370101344
2.2162303558773857
1.493790072590184
2.02241712800875
1.4484924200667482
1.0014955793419729
2.098884033185811
2.1896723956652977
1.596206620604895
1.7469305987275006
0.7870141483464317
1.0255332078717192
2.338404732391796
0.9308229617802183
2.326213840374073
1.7378106465185947
0.8182080750060858
2.0932519490263912
1.395671738358768
2.201808816586763
1.961427902057049
1.4471636154261718
2.150351847557405
1.1771561644446824
0.9513330486499562
1.5778922778754882
2.1726262736278366
1.3893072708494558
2.0002620956001693
1.9340394109563097
2.350429135674919
1.5950876815322395
0.7854580280674536
1.539585255803545
1.6180010176063906
1.4986641455695577
1.3931029163108997
1.9273533924405748
1.3413359757211432
1.9538396596815337
1.9722283659942754
1.9691540707648933
1.5959139253122092
0.8545557849958045
2.114281110089733
1.747191029039697
1.857550249700845
0.8624742457562703
1.8534935266119512
0.8717622772417686
0.9129287188536519
0.9287808127138333
1.775213442903485
0.7855345604142596
1.5752419804558748
1.4829024763114682
1.0618320583722933
1.154772965936219
1.8883126296721984
1.1628223112381628
0.7884479497131437
1.1668953239149427
1.888450529094129
1.7957392205758276
2.2654500045253854
2.3322199627353717
2.13600705712414
2.344889621399844
0.9755286827988494
1.5793424399817737
1.6262253212160231
1.6380888719733961
1.9794193880042785
0.9993208749649983
1.7952469262922586
1.806345465388218
1.9928929039330363
0.9308464864774388
1.4374919550023102
1.9969564220087108
1.6494716521412907
0.8762823141842259
1.9006727811673154
1.1693578181720201
1.1647362609912448
2.334695637367711
2.313290397243118
2.139660885294803
1.440925609956262
1.1519339780700308
2.2244299329272383
1.506656909263373
0.8211556743080313
1.73027896068908
2.051865722033983
1.9640485114056108
1.0182012142243546
2.2634615198567567
0.9278863138733963
2.3522928251853443
0.8731593273737712
2.3044693253904325
0.7854003617388874
1.1655983579895521
2.3500465535027577
2.1245071755705043
0.813014138757926
0.844703588026319
0.8418519172006873
1.0124597460794909
2.3548269262400816
1.021663729955699
1.6206520512488916
1.6963179235005454
1.6987480305974152
1.3966487613033736
2.351589634376605
1.3473619308045108
2.2817508712245287
1.2092223727749911
0.8826883089062614
2.1946495225954674
1.797708562035628
2.078771614629225
0.7858425515609814
1.8090796378892913
2.3547710536919797
2.344210087703506
2.237222026340139
1.0065788627738221
2.241033441034487
0.856298042096136
0.8235107331301388
0.8560774790454433
2.310122478660179
1.9646819863953837
1.3386153466031316
2.216929639546287
2.05306107397145
1.4036074933524842
0.7978561741868825
1.6673115273765986
1.3873585409414915
2.0927818449724227
1.6834633794897902
2.081821407146142
2.2547493777210654
0.7854006587247376
0.9002945873307161
2.0080818199015336
2.356165047857524
2.126679935829088
0.8627546317922551
0.859268151826485
1.517850414403671
1.341759974761287
2.16983345628896
1.7416513522349573
2.0919986784620495
2.3158297652594197
1.1508448901024584
2.30697847346021
1.5906928075961653
0.8371986609234866
1.7039734847391386
2.164234485362735
1.3306280524987129
1.2255336652406825
0.8013858443483352
1.8738262235665366
0.8149222792166353
2.2377433456653466
1.9387525314681342
1.4766998799389395
2.256009346711205
1.9459863568707039
1.8042525113140782
2.3137714898538047
1.714212559301574
1.546178560444731
0.9497685068036814
0.7945417890809473
0.7854413749156149
1.5855764475457743
2.35103650456876
1.5392022153333025
1.823402866361206
1.7814828070630757
2.1625717384017378
1.5293876482825852
2.307388635157868
1.7629913648305169
1.4780877084921697
1.8720398809653473
0.8071679420454225
0.9729953867896488
1.0371742670061845
1.9186775653428594
1.5394015170339261
2.2894056340743374
1.592951928666672
1.1301698458182794
2.3561796857553063
1.5178363723432864
0.9321872624187252
2.3021451973254843
1.0629752703940938
1.0220611586137855
1.8303026060875882
0.8143248182847423
0.9974990085503169
1.083878608900571
2.151626852102419
0.8396852958825644
0.7997624403749197
2.2368828160794316
1.8370825951161842
1.5057875543858361
0.8925217107922361
1.6266154851515695
1.4842431212755487
1.5593948067587136
1.315486556913002
0.9311225607023723
2.356176518812074
1.3287797663624166
2.213293549653778
1.5767980591993886
1.5227506928150054
0.785413938684611
1.524444507024049
1.13003426877176
2.011013925781288
1.5216067842576892
1.6145554111933709
0.8650907964425968
2.3017808577029917
1.444473377326053
2.116415154575626
1.7367955906079897
1.6092179475713693
2.2984423504944136
1.075562596388199
1.1450546708764144
1.8904608249984332
1.8943425799107063
0.8150261639859706
2.1696141838328886
1.1966008549717368
2.354303382239396
1.0674646072578995
1.9358860184453526
0.7854133096995148
2.2166165670346456
1.1812404010678912
2.264836564811931
2.27738023230825
1.53921779759252
2.1817814013503254
2.258654799539808
1.8351166179882727
1.2678431486594905
1.6588497530479904
2.156672957721376
1.484680278123468
0.842222862800979
1.0818282623837734
1.1422482246684653
0.9030627872328407
1.436927779399437
0.7905235551238388
0.9852811328442972
1.9837320378906398
1.7649657485491554
2.091909935548361
1.7956874976442176
0.789052322676074
1.819120522041798
1.2147331390977105
1.4961354886113651
1.6644882176285458
1.675549868722997
1.4950730552123397
1.918882906127837
1.1730372224146235
2.3557302084187257
2.326320068545121
2.140992244064088
0.7853996295577017
1.1575188031890626
1.9037241852764888
2.337138814394793
0.8387240780407035
2.140870566045952
1.7741334711843748
2.0906573967797666
2.2667186030517894
1.6839549635866033
1.7968129822527041
1.0606494409038105
2.0475292655479986
1.5953600484840154
0.8148732282175547
2.2566068579044076
1.8500199536664292
1.6492184788018707
0.8766478327698264
2.338140282397238
2.338562691816103
1.7924225895730443
1.964408834511059
0.8857357747071258
0.9745765393542547
1.8578136910804872
1.608527340050141
0.807822622322999
2.3549493170711018
2.1393464618405753
1.7013322935517796
1.3911936532407037
1.6238115232602641
1.5507706306130542
1.5135405835633873
1.2514246614769609
2.2160527835844914
0.785400856519457
1.6271324905907583
2.353414132528888
0.9650924579811831
1.5131839082651264
2.220451876891605
1.18150015208234
1.7814085137281146
2.327241761239307
1.6443594577588672
1.041103783381422
1.0763454789842855
1.2335944366856522
1.882656957051419
2.123456902915898
1.9594063863743034
1.4737767039226874
1.7612893822388083
1.927088036515756
2.1244771348844105
1.5161297339008586
1.4393982140586064
1.9006587844915621
1.3860715381758122
1.3092051588128153
1.366203398776024
2.32530837374131
2.301975020083377
0.9765642623156797
1.4188236910219236
2.3505499938049197
1.9618697042753859
2.1437081366179482
1.585154126596604
1.6995422456136695
1.8420478907043831
2.3426771120845093
1.8804327719471097
1.2310848355600705
1.3042657416349128
0.8033569528362494
1.3054255542155135
2.077275292622888
1.664333361885015
1.9689262582578073
2.2487303829685232
2.311895074221256
1.5123236176272947
1.6264158970814835
2.304605339048275
1.1495876478534952
1.193583698701725
0.821417994721705
1.1111152341909323
2.2668582982678385
1.0548563146932932
2.3555019216603714
0.7943413848282608
1.2971563553771404
1.2471023432053574
2.2338333326764577
0.785574631801389
1.721543151660933
1.0223993165862222
1.290952419478777
1.6950354321058223
1.796567139138266
1.5253715887779615
1.4650368162671112
2.082474712579696
1.507369262459452
0.8614639500215757
2.3082518239280416
1.20986621521796
2.3561233138144133
2.1381208820720836
1.0256824668079096
1.9391184666527577
1.8890347097007567
1.7401266413839125
1.6959745770984962
1.0088487180868124
2.1361271339545835
0.8963458243330574
0.9784904262710217
0.9664949969943685
0.920232789171479
1.0472262740847855
2.152929468175715
2.304823390736774
1.3176712457431534
1.6045972370717756
2.3101617325797315
0.935559267721995
1.5612919022218505
1.8896177859352037
1.460116861017125
1.809605208926612
1.2711791074123115
1.3569601776685947
1.7122210961877993
1.2260043669711223
1.2112433001311533
2.354732890841841
1.4543213495360916
1.8504903758470157
0.9836386618389326
1.9770858025540394
0.8346951098406561
1.8144661126960073
1.534334188422181
1.709396764415485
1.0155464651782384
2.150292036215975
1.5352920634608962
0.9920347043100304
0.802134129613825
0.9500477136129002
0.8153044184022311
1.2021556089854024
1.8696226745287876
2.282739981005392
2.2565750250637846
2.2868686296185663
1.7148368537509173
1.7345830934332198
1.529950332906956
2.262085458825475
1.9833585154040114
1.252020212460171
2.0203243695186974
0.9970493531743254
1.7028317643956006
2.26347715677266
0.945074349897642
1.348417422278551
1.9989430073892447
2.0361541956690603
1.970692504339447
2.140082981057085
1.179230052123746
1.9091377051033742
2.3531025466707987
1.5063833955907058
2.352966102810053
1.3413301394506212
1.8969239102211073
1.8909692368787272
1.7266280574723372
1.061757122799783
1.9816314394394752
1.7035998364272922
2.336820710987759
2.354549777492399
2.331249882502132
1.8487499470558884
2.3523924836424634
1.3810504466728648
2.0913273581703415
1.4171381037414623
1.7763223209152799
1.5657860129132313
1.5768242854489904
1.0504677398241862
1.3420857507089612
0.9878596401634127
2.1800859303912534
1.147087884265321
2.0188402296226533
2.217963212340793
1.4153137554736
2.3492164746197974
0.7992660085006527
1.4221178952410172
1.8433150952075663
0.7984035768642124
2.330622414889388
2.2579283252706572
1.6660778228523925
2.1139297232458802
2.1812340901012384
1.6559656787057357
1.313513477599985
1.99983894413616
1.9071468353511445
0.7859230594943212
2.340811767949287
0.9387098995243184
0.8232305565077489
0.944338813537952
0.8850375158547422
1.674923922646855
2.3438661516071444
2.2703448705351974
1.8835964390590714
1.6957235450522306
2.3483313225566764
1.5639725187730056
1.4584406741183544
1.2950218541129532
0.9009841223566291
1.1067479235436564
0.8323974401182228
1.0961581661351465
2.0763712878738203
1.4949961269186316
1.911559027159781
0.9042965856180589
1.9196477147825426
1.1191084535394396
1.4761486043668193
2.268518245440393
0.8146344258286493
1.5406771086974862
2.1508917250120416
1.3379516357047425
2.2482129045764307
1.5165420710931015
0.7860403566628149
2.234042106647714
1.7448025518605028
1.313457754128353
1.4445885015556432
1.8083937812722033
1.4036239385809655
2.003054166852859
1.543893022898049
1.5442473090002071
0.9478182203749541
0.7914538519451189
2.342301252672475
1.2983225771572735
2.3197292723477263
1.6618563701666027
2.31088846122958
2.2549640256712977
1.2379826114389014
1.2529884990356368
1.226401969924427
1.212116549909976
1.079549030405554
1.1550323521423287
0.8980649676334678
1.3507957657091882
1.8184686154682455
1.5721486834323761
1.058121477040981
0.8444373945578931
1.9787710791598427
1.2714035941274666
1.5600427750113548
0.888270408670813
2.3296220261826237
1.5389381823153525
1.3663232012396194
1.9258162733519062
0.7857764460301774
1.588509331104729
1.7407913924732983
0.9784309903966278
2.007788914305655
1.519064570178274
1.210083338303923
0.8130140911805509
0.8144588114502928
1.7908951712332264
1.5852040554285705
1.4631842526373373
2.2295903211267096
0.9440536490400706
0.7943487876261099
2.0034808421402355
1.2388516309581454
1.8263665557884337
2.3343719518729817
2.237082869287582
1.3926410861045964
0.792142951986897
1.5740869965495232
2.2492448061237504
1.8434978090297667
2.355745018703714
0.9493928040666153
1.9924270010637386
2.0051236011425746
1.6056577890353332
1.9862583945510464
2.173670668032559
2.094989986298206
2.150591364040563
1.329775584838661
0.7933029713344577
1.0409862599855861
2.30140386117792
0.9209563985056504
0.9041652868407406
1.5138968255358982
0.8026269630742119
1.6068810699930591
2.32642405606214
0.8537258961203829
1.6117504095475084
1.6050622913970352
1.867575255785608
1.983536937949349
2.2449602737448533
SCALARS beta float
LOOKUP_TABLE beta
2.3455384096557608
2.2301351130270066
0.15394595628370544
0.9572936397406621
0.378637963803469
0.42311304315287407
0.9986511224266995
2.4111292286127086
2.290461042083137
1.8696963534657767
1.5803167895785086
1.597309605177659
2.8904311109087595
2.849803200815277
0.7458659242097158
1.0260230605192078
2.1993447095684378
0.36981000131302505
2.679839787137118
2.6639737298465187
0.1813909798059816
3.0096968432892353
2.57262522487052
0.4536335039059983
2.4361818256987275
1.5404933947015016
0.8821370397489096
1.9462359932020816
0.2320565342722314
1.9438193236609924
1.1295590546076189
1.971849382531288
2.9670431498115253
2.742080358921662
0.5188481390022464
1.2517453199109823
1.47883202309074
3.0114020559968866
0.3785027601832179
1.6914465007914699
2.4183073656997984
0.1975271029306772
2.8039091382529007
0.5578455367828943
0.43323797275144427
0.8381615679513975
2.42955518835672
2.6507177138694797
1.5614958858018975
1.6936844151995443
0.12765376738147155
1.0822508829323987
1.714654114246561
1.701045588712869
1.0430811325567058
2.6654640278020896
0.4599431125898968
2.807595728225222
2.9533059713083842
0.5935458624027512
1.9929298993920697
0.43810350639263107
2.5968560828870566
2.0664952315785032
2.4373647819587365