# vtk DataFile Version 4.0 
Unicorn heart vtk output
ASCII
DATASET POLYDATA

POINTS 1000 float 
0.214816 0.255007 -0.005299 
-0.244625 0.124801 -0.056028 
0.112839 0.082417 -0.095323 
0.097463 0.332595 -0.230802 
0.278515 0.220231 0.097087 
0.142109 0.330519 -0.148254 
-0.000825 -0.17647 0.025845 
0.007232 -0.155014 0.01613 
0.157036 0.429597 -0.12249 
0.005658 -0.235039 -0.072145 
-0.046385 0.030959 -0.006502 
-0.360863 0.119864 -0.026427 
0.101448 0.313592 -0.169925 
0.045748 0.008837 -0.162213 
-0.264947 0.150485 0.04566 
0.064269 0.24543 0.031391 
0.058432 0.042864 -0.186611 
0.121832 -0.025133 -0.141278 
0.073684 -0.003285 -0.041256 
0.036454 0.181356 -0.220432 
-0.148241 0.061476 0.157664 
0.006422 0.165414 -0.112148 
0.004505 -0.04779 -0.123583 
0.236556 0.181763 0.041071 
0.363513 0.256644 -0.161707 
-0.114735 0.427329 -0.00675 
0.202516 0.217366 0.067621 
0.379271 0.309231 -0.01831 
-0.085231 0.124079 0.163375 
-0.092781 0.265063 -0.046256 
-0.022711 0.361865 0.089187 
0.113711 0.260029 -0.004486 
0.168269 0.301963 -0.184277 
0.239869 0.280616 -0.127087 
0.086121 0.024821 0.023015 
0.208606 0.171327 0.179398 
0.236081 0.323593 -0.010063 
-0.022098 0.088828 -0.173846 
-0.2113 0.309894 0.103025 
0.087961 0.198403 0.013515 
0.375377 0.088666 -0.026686 
0.164767 0.217538 0.106285 
-0.250799 0.257452 -0.054786 
0.033386 0.267402 0.179147 
0.100257 0.281991 0.144103 
0.202669 0.048326 0.068611 
0.283943 0.153404 0.00516 
-0.154064 0.124208 -0.012013 
0.390356 0.273687 0.05624 
0.165505 0.065127 0.009123 
0.06564 0.07117 0.102944 
-0.080874 0.406448 0.179162 
0.239122 0.241204 -0.012792 
0.193193 0.144321 -0.004649 
-0.089491 -0.18 0.083931 
-0.009137 -0.064523 -0.015959 
0.088711 0.295081 0.223373 
0.122334 -0.010372 -0.110007 
-0.190996 0.184776 -0.054321 
0.064212 0.382476 0.196752 
0.169799 0.358461 -0.05409 
0.158777 0.167243 -0.146769 
0.006429 -0.198437 -0.111835 
0.143853 0.250667 -0.002767 
0.053869 0.033912 -0.227958 
0.288733 0.162979 0.087825 
0.146778 0.238138 -0.01678 
-0.22273 0.095961 0.162682 
-0.24931 0.276596 0.006971 
-0.223078 0.268769 0.047771 
-0.1909 0.441357 -0.024743 
0.112441 0.106696 0.070551 
0.148653 0.463642 0.077227 
-0.078323 0.404024 -0.074236 
0.05768 -0.024258 0.076366 
0.159006 0.09877 -0.160421 
-0.089447 0.011658 0.06878 
-0.023578 0.049335 0.095808 
-0.265559 0.199203 -0.024287 
-0.210424 0.306892 -0.019178 
-0.229809 0.19939 0.185865 
0.153455 0.430213 -0.108941 
0.016424 -0.097587 0.077183 
-0.045931 0.061563 -0.233289 
-0.072993 0.342831 -0.084756 
-0.063965 0.041981 0.163821 
0.26544 0.298219 -0.127907 
-0.015226 -0.010993 -0.026901 
0.075563 -0.152848 0.104986 
-0.185983 0.370796 -0.079555 
-0.093541 0.037699 0.113621 
-0.30953 0.419221 0.123514 
-0.219059 0.117379 0.025196 
0.244017 0.310829 0.063335 
-0.079014 -0.152244 -0.121526 
0.143776 0.245416 -0.009177 
0.323264 0.007849 -0.01988 
-0.171099 0.363166 0.062327 
0.121887 0.143969 -0.102564 
-0.12113 0.147933 0.238416 
0.250273 0.254506 -0.063969 
-0.233809 0.246035 0.020707 
-0.224533 0.103989 -0.128455 
-0.030646 0.090937 0.052293 
0.192145 0.246998 0.182219 
-0.013448 0.178648 -0.193576 
0.122667 0.269684 -0.0331 
0.086976 -0.084954 -0.193293 
-0.012351 -0.253788 -0.098425 
0.273407 0.285612 0.082754 
0.293062 0.200245 -0.039069 
-0.006492 -0.061471 -0.004594 
-0.131026 0.200789 -0.184685 
-0.076539 0.298352 0.024524 
0.21471 0.208477 0.07141 
-0.144536 0.008451 -0.15584 
-0.119124 0.261526 0.158566 
0.302312 0.280882 0.051779 
0.181904 0.074133 0.008396 
0.171655 0.300892 0.019722 
0.146644 0.468637 0.051749 
-0.117053 0.362929 -0.072153 
0.173781 0.257605 -0.01958 
-0.233824 0.499339 0.117697 
0.229821 0.299319 0.117141 
-0.280475 0.201418 0.114908 
0.255907 0.08145 0.033141 
0.06079 0.094736 -0.146558 
-0.162098 -0.048159 0.222496 
0.182847 0.394292 -0.018972 
0.199867 0.36778 0.046124 
0.022604 0.36536 -0.218047 
0.219082 0.340892 -0.052254 
0.235863 0.160186 0.103784 
-0.132244 0.353387 0.137805 
-0.027106 0.090904 0.094142 
0.235705 0.444614 -0.049969 
-0.028795 0.193128 0.119969 
0.020086 0.156395 0.008049 
-0.164073 0.280804 -0.172797 
0.056432 0.197427 -0.09402 
-0.035473 0.110519 -0.154557 
-0.195486 0.32352 0.173293 
-0.152693 0.218501 0.133224 
-0.024406 0.03123 0.245874 
0.147978 0.438635 -0.121298 
-0.117092 0.229272 -0.113849 
-0.053317 0.349614 -0.183111 
0.055448 0.356776 0.051193 
0.171817 0.368981 -0.118757 
0.006369 -0.044681 -0.114134 
0.041704 0.142675 -0.025983 
-0.24948 0.126791 -0.171447 
0.2209 0.084693 -0.144726 
0.043707 -0.128273 -0.044521 
-0.018426 0.375883 -0.029892 
0.215846 0.296219 -0.006223 
0.230526 0.326299 0.09958 
-0.037234 -0.139609 -0.042555 
0.141954 0.138143 -0.022359 
0.122575 0.120667 -0.1839 
0.285292 0.211253 -0.087005 
-0.256283 0.240971 0.004641 
0.203278 -0.020885 -0.056851 
0.098279 0.196538 -0.153157 
0.23352 0.114778 0.082165 
-0.267489 0.376946 -0.077453 
-0.098591 0.29136 0.063781 
0.317361 0.325158 -0.188633 
-0.086249 0.119343 -0.114405 
-0.136318 0.100399 -0.091742 
-0.023048 0.080267 -0.181097 
-0.039842 0.124506 0.163418 
-0.051888 0.19131 -0.163382 
-0.064299 0.016327 -0.17634 
0.21722 0.285169 0.063121 
0.346442 0.35986 -0.049816 
0.111434 0.321948 -0.052845 
-0.046693 0.16906 -0.043372 
-0.295789 0.322139 -0.153958 
0.049007 0.346417 -0.068392 
-0.081136 0.318275 -0.120921 
-0.302326 0.162435 0.108898 
0.160731 0.073439 0.044136 
0.093264 -0.200741 -0.167107 
0.057478 0.021217 -0.1062 
0.198095 0.213117 -0.135659 
-0.174987 0.274406 0.163238 
-0.244806 0.231225 -0.070205 
-0.246527 0.164247 0.063018 
-0.24121 0.420521 -0.078719 
0.06775 0.278817 -0.07388 
0.311078 0.070531 -0.120866 
0.154848 0.397981 0.093991 
0.131075 0.335837 0.086919 
0.211182 0.173191 -0.166751 
-0.296528 0.242452 -0.055473 
0.29492 0.145119 -0.096243 
-0.151345 0.258106 0.016259 
0.198411 0.391439 0.196438 
0.046654 -0.243051 0.073401 
0.003158 -0.195881 -0.019505 
0.246621 -0.074608 0.003433 
-0.045891 -0.004872 -0.012298 
-0.24046 0.182085 0.146982 
0.187599 -0.033123 -0.10092 
0.022165 0.051633 -0.016214 
0.032596 -0.23137 0.096926 
-0.279902 0.23164 -0.096674 
-0.003574 -0.169687 -0.030434 
0.155098 0.360055 -0.15729 
-0.01835 -0.193294 -0.000604 
-0.197862 0.35794 0.004724 
0.062832 0.131529 -0.190095 
-0.131186 0.262218 -0.001381 
-0.106423 -0.26092 -0.035561 
-0.074318 0.26388 0.172505 
-0.045057 0.102372 -0.111627 
-0.266243 0.034596 0.067476 
0.183801 0.360289 -0.0662 
-0.233599 0.243605 0.019475 
0.123689 0.331786 -0.142107 
0.010755 -0.154158 -0.05814 
-0.294498 0.176295 -0.162005 
-0.185005 0.370372 -0.038945 
-0.25336 0.199042 0.08048 
-0.22148 -0.014839 0.066682 
-0.04989 0.058708 0.162914 
-0.281046 0.218942 -0.035033 
-0.305992 0.305578 0.073424 
0.181381 0.289695 0.002135 
0.122908 0.196084 -0.207361 
-0.28989 0.315605 -0.008 
0.056714 0.258429 0.066257 
-0.027816 0.257726 0.225275 
-0.210716 0.113565 -0.013488 
-0.073142 -0.026297 -0.064878 
0.125738 0.28151 0.163962 
-0.109057 0.258813 -0.025079 
-0.250841 0.229121 0.22685 
0.111879 0.464241 -0.015857 
0.217132 0.134444 0.019979 
-0.216316 0.369924 0.233923 
-0.071882 -0.037003 -0.143869 
0.060651 0.070126 0.003838 
0.231596 0.128798 -0.122283 
0.167642 0.153755 0.018578 
-0.027394 0.14047 -0.246258 
-0.135938 0.035957 0.157357 
-0.188094 0.246214 -0.092292 
-0.366135 0.211825 0.125374 
-0.158939 0.404832 0.010365 
0.284353 0.191663 -0.097432 
0.161113 0.068986 -0.19161 
-0.055117 0.024876 -0.085454 
-0.004667 0.367894 -0.084546 
0.118964 0.234788 0.166471 
0.007185 -0.157247 0.037999 
0.27097 0.329174 -0.220346 
0.006279 0.056499 0.113518 
-0.102183 0.003005 -0.040116 
0.226538 0.292178 0.151612 
-0.124823 0.161737 -0.098415 
-0.114878 0.379728 -0.052924 
0.206368 0.059912 0.080166 
-0.08954 0.108102 -0.047444 
0.217643 0.377861 0.130511 
0.208858 0.150197 -0.091722 
-0.094018 0.380878 -0.019307 
0.0403 0.213743 0.137924 
-0.162275 0.226961 0.013113 
0.083291 0.280178 0.181504 
-0.178709 0.240353 0.173897 
0.172854 0.248467 -0.008621 
0.306131 0.169308 0.141484 
-0.186482 0.295888 0.108678 
0.137204 -0.027905 0.073321 
-0.234281 0.312092 -0.142386 
0.110169 0.316156 -0.007646 
0.365128 0.07772 -0.04478 
0.050862 0.417422 -0.029361 
-0.095095 0.094406 -0.095061 
0.288238 0.034708 -0.026423 
0.033447 0.20423 -0.163151 
0.070726 0.301388 0.125234 
-0.235868 0.314876 -0.005556 
0.055022 -0.065636 0.040586 
-0.307663 0.0647 0.001215 
-0.100885 -0.081855 0.145439 
-0.096099 0.269524 -0.05107 
-0.198444 -0.105143 -0.018296 
0.180284 0.366914 0.11803 
0.268543 0.13959 0.077636 
0.272828 0.147723 -0.017509 
-0.179407 0.100676 -0.036964 
-0.130169 0.121433 -0.227953 
-0.054409 -0.154593 0.099958 
0.15953 0.357138 -0.013599 
0.238925 0.311191 -0.167594 
0.11938 0.126532 0.11564 
0.045195 0.404423 -0.024735 
-0.283833 0.254452 0.179292 
0.077631 0.193021 0.016143 
-0.233746 0.066632 0.222706 
-0.234454 0.401874 0.112175 
-0.056723 0.244179 -0.104036 
-0.140414 0.130946 0.241738 
0.166089 0.398339 0.081575 
0.20649 0.066029 -0.08592 
0.038513 0.397569 0.041147 
-0.056559 0.026223 -0.076831 
-0.005437 -0.116239 -0.164926 
-0.277202 0.316802 0.046616 
-0.220312 0.287324 -0.008286 
-0.155262 -0.085121 -0.1579 
-0.257605 0.149829 -0.061358 
0.222379 0.231605 -0.16123 
-0.118142 0.232479 -0.120923 
-0.067851 0.157573 -0.019927 
-0.333261 0.002269 0.020969 
0.244265 0.137313 -0.026478 
0.08342 -0.006605 0.013432 
0.227081 0.323915 0.172435 
0.156431 0.333788 0.064961 
0.060059 0.233834 -0.170398 
-0.130473 -0.061951 0.037421 
0.045625 -0.012362 0.016978 
-0.081259 0.368555 -0.146739 
0.242743 0.236499 0.015102 
0.242901 0.310576 -0.081631 
0.28485 0.421361 0.120938 
0.176038 0.373314 0.069052 
0.170892 0.266803 -0.154976 
-0.08386 0.336438 -0.16379 
0.10571 0.3217 0.060605 
-0.211125 0.310308 -0.197104 
-0.057402 0.042786 -0.17749 
-0.113404 0.31677 0.020491 
-0.111543 -0.09471 -0.186666 
0.007698 0.128443 0.127561 
0.205221 0.175331 0.094112 
-0.05075 0.31317 0.12186 
-0.021377 0.030911 0.081746 
[...]
POINT_DATA 1000
SCALARS alpha float
LOOKUP_TABLE alpha
1.3569679073659517
2.1087289895758716
1.823792626493949
0.9699896205678559
1.7390730983245895
1.5889886634234556
2.2176910924483644
2.1459646632485248
1.9997615406142915
2.2862260499924356
0.7869702041472706
0.9133276931302768
1.725356282500558
1.3487430156447031
2.120499213535717
0.785676552714902
1.6901789421894964
1.8548624036194639
2.0180453758278993
1.323261608485535
1.32705603406087
1.4931825704867907
1.8147515579563498
1.1178712053063666
1.6163627480934566
0.9337565790308046
1.9851676732337338
1.9990032126930588
2.0467761828875224
0.8592175198436587
0.8531801595332635
1.3754773383867325
1.5317534328732112
1.4207024542636897
1.8932125600697138
1.7548813585787582
1.0441017173454847
1.5136843736418817
1.3944910300667304
0.8133148004453203
0.9796261945562726
1.5641171713031312
1.7725093014099407
1.2616574136858345
1.9892812515215137
0.9146262691350123
2.224252558359181
1.8225989925484662
2.0590545043990387
2.35311192119751
1.425406953946955
2.2352819927629177
1.0901423054270085
0.7924778364825372
0.8763892276933761
1.9844977856616872
1.2762888395180165
1.8715084180047385
1.5929679636904959
2.206655099298026
0.9132889100893433
1.4447869864364582
2.2206439515738747
1.057806657270505
1.8479650777894172
2.0339120476329415
2.271513004727088
1.7594668757498142
0.9784998820730876
1.8480841816077773
2.353419473042367
1.794752226194707
1.909437019638354
2.344715059192946
2.1059798309742477
1.7286785820423816
1.8868212113888314
1.828369715705145
2.334415490969994
1.1887021427151832
1.7675553036632765
0.9982233770515432
1.0121944570878592
2.3352615566378905
2.3196487985097938
2.0318368479954576
1.3256911326874832
1.8534622459072374
2.188281519791002
0.9688155553749669
1.6904604806511927
2.1216875510844706
2.221705558375824
1.2854605922548585
2.2710881678304657
0.8693775160280053
2.325431325158661
0.9048003278878974
1.4199857478979858
1.500772349251475
1.5686228125940056
1.7686619924218263
0.8867612030102714
1.776305065628155
1.4786804285449846
1.1036839712650852
0.992401366314914
1.9903013642144192
2.2486252017952495
2.048537075718644
2.0363426449112674
1.9723249475930862
1.6165550446865893
0.7878913755797884
1.4916212950593373
1.9874922195645484
1.3685677980949436
0.8972896106062943
2.353886116488189
1.2603473032711843
2.115178450556532
0.8432748052640989
0.7874884592052107
2.2463688569825915
1.7025955485985276
1.6588783562016407
0.7856578051405824
1.4341728742860338
1.1676574454699022
0.8019679005522921
0.8228002442069864
2.0547794985278656
1.1057491405433901
2.3514122488924603
1.2612320459060997
1.6824078974553633
0.8100458598371016
1.482312425702483
0.7868813965326418
1.4267859362934883
1.4785537825780797
1.7968249190818724
1.4064033847097481
1.5883709493988734
1.085756458919829
0.9063920344605085
1.6273863165973
0.7865614992790346
0.7856141250365554
1.172716678879519
1.904560124780625
2.2757620454342793
2.0829774082005734
1.8797786643929981
2.1220935375176517
0.7857533101895787
0.85477742956292
1.9506527202187631
2.31471122187069
0.988619488246068
1.590188977946723
1.8402112345655268
1.528117086638517
2.283769398541756
1.5935541167517646
2.3560253412853727
0.8754483045736805
0.9784125355054434
1.5309749695901347
1.6718348232516036
2.1066720494607667
1.8069378767765265
1.8345826003496106
1.5819232867057709
1.8454072755975155
1.9661683688713198
0.863342879218672
0.8265721661559131
1.533470210312338
1.0357124263762536
0.8356686386259177
0.9838124609080259
1.137616595493009
2.0639350145531985
2.3363128442298704
1.8325687293924717
1.512518342207075
1.422369915070286
1.6188800429809593
1.7530187336727545
2.333937177024837
1.1268713438714502
2.0551405320164062
2.3359341824738347
2.199224105688235
1.5985393515514665
1.6719013309552722
1.995377608920584
1.4163796327420632
0.790910862715833
2.1458443517776944
2.310385149366573
2.174829810946046
2.349114108032485
1.329277546161393
2.1972489399640915
1.7291833319941803
2.2212305816462967
1.6928113021443023
2.20516546583713
1.1762918394129684
2.2516296836556307
0.839856865673013
1.7055723872369408
1.8290363650291575
2.284784381273865
1.2984771198807243
1.3726651340218445
2.2662606796078495
2.2115156095965434
1.7432211685738812
1.1436198129102437
1.1391316125153028
1.7181646782631699
0.7926240832654055
1.7535355693875212
2.257803808287304
1.4707476961260166
2.021589547391813
1.3307513429824436
0.8182849219268703
1.5746092629644597
0.8817109775422587
1.2153671930937067
0.9462914696495098
0.7870678347670975
1.9874407914009413
1.8863300529768672
1.3637031837702074
1.4568976765228552
0.8003771762892551
2.3525571975990553
1.8799925295410136
2.2206883073133343
2.35354053404864
1.7983745943432052
2.027884950582021
1.6950034745560112
1.9473164273828563
1.9640071281195293
1.4091264054720491
0.8019915371201145
1.9420361441145337
1.3600503092799596
1.322498583839522
0.8033833079922729
1.1414591325354984
2.246353760231609
1.7747103358280822
1.648340262042431
2.0753870743084604
0.7983059899018231
1.576898991818722
0.8126420735786792
2.2127559703630344
1.8044639886542388
1.1059229488624096
1.7008269546025816
2.3555385143295324
1.307035136671803
0.8017838145787333
1.3834691430100567
1.420440899076753
2.3528705091068076
1.8996538829464655
1.3905554959859059
2.27638787201759
0.8020575842366107
0.8342858074527884
2.00512763840858
2.337504032265687
1.9932736385591951
2.2449980283143836
1.6691561739026124
1.0145697808817058
0.7859484428992185
0.9869138401912093
2.351822944293897
1.127740781923155
1.1998217087181218
2.324895517387032
0.7855822325036332
2.2582673955704053
2.086824331199549
1.0075533121708655
1.3977649793859348
2.256893221211962
2.350232223087627
1.3486507684860425
1.5528817942391269
2.348292604456648
1.701616275351079
0.8417931627188935
1.3515566176077216
0.9560443255740113
1.1586115669581225
1.2704619115882076
0.7994347072308666
1.0673126226310852
2.3530981830154833
1.6536127487869297
1.9801192596081107
1.013340398266086
1.0670682415951542
0.8716957832195377
2.012037124835476
1.493454223778274
1.5168531724628518
1.561291916632328
2.2837850849135837
2.2732091204182248
2.3296207461927634
1.5357589342201232
0.9878721868338659
1.5645629147943896
2.194835607342557
1.912850197711434
2.1604602580810424
2.151613299629287
1.377224190537243
0.860583139290642
0.9450371584811784
1.734173872115475
2.1096185749041423
0.937119835061175
0.8626741371142285
1.500424066566123
2.329618234392087
2.233161930425892
1.538671663092263
1.710092192970208
1.0403616254468322
1.6979527500989742
1.093030806882832
0.8680655535053866
1.6557538346905762
0.7875615882410455
1.6967979943176061
1.7246716058893268
1.0767107606424404
1.1124033248452694
2.2816567892266963
1.3799746386010407
1.977928915886166
2.2775016163068855
2.343351010413835
1.6910424347335147
2.2983769301853774
1.372514245280241
0.8683840733772596
1.7045255687401928
1.6480273502407345
1.310510952144493
1.4922820469685096
1.3045750060544354
1.3491619143492328
0.792557132018476
1.2508524607793734
2.090360172922925
1.7408309933639483
2.1892393309665508
1.4360942405911323
1.08917671684744
1.4131683457554318
2.1510770956922416
0.9798697813331617
2.20977352818403
0.9235432924535749
1.8900765320088355
0.7929754802718408
1.002131932881774
0.7882851351249384
2.2753012365238305
2.013269015188146
1.6182336001954913
0.7912222365189755
1.0630677591306967
1.4798724324685257
2.2147836082766097
1.8463561103153927
1.6276920864388782
1.002871184630789
0.8786202361179983
2.2088406656356807
1.4806594528619406
2.275013830648343
1.2137035187466176
0.9175050047501363
1.7864873171959712
1.0387142651306915
1.138636481963885
2.3549697365489655
1.5699400684340392
1.9732118565994825
1.344193310298049
1.3445316906627158
1.243440300032175
1.7531862130568168
2.2314567660785425
1.983079021991417
2.2677305338089058
1.5257863928048416
0.8497942795476877
2.141047152518625
1.8221765698652705
1.226730065090054
2.2296839125330847
1.3336614863964342
2.3150609059485436
2.2748331051936552
0.8847586355678502
1.5690534771593838
0.7880875909518836
1.7365555812194167
1.3460117817075976
0.8072104736902023
0.9168807360671766
1.9285931219391064
1.4770131991045952
0.9211271300144911
1.980497484828925
2.029571639919241
1.3269498944809384
2.2218694419442344
2.2622708670182043
1.9158803883005724
2.3461810064138584
2.177004742563595
1.8772094429497772
1.4881523972454593
1.602077918002685
1.0527396738748307
0.8754711920713256
1.6993193910332598
1.3321710408122915
2.020781076940835
0.9366970642907605
1.6589080572355381
1.9153608493268095
1.84835859770729
2.1196541858134252
1.2627203358007717
1.2623708015827535
1.204984564819685
0.8007156349134152
0.8301711113705565
2.198765950602592
1.4159550048275122
1.2140445056552722
0.9470337407732204
1.3675116689963618
2.3047261482814205
1.3957453521165095
1.0994015045822174
1.1129307133067192
1.0247708849432489
2.3465840176460477
2.247634011359838
2.3559092603778593
2.2000573601875035
2.3142275230176286
2.344314334205783
2.075667846827774
2.3504935394185753
2.309121313267791
2.3255098526864306
0.9103082616874273
2.2917715223374557
0.8295639628241833
1.221131027664998
0.9697262676106962
1.4718103975222057
1.863683116173817
1.764022191157103
1.3818623964590728
2.2878050670233296
1.4242850278355752
2.2600180031397823
1.0831624959191157
0.8789961819439212
2.1507252998467505
1.8524834280829587
2.328788887549539
2.3361516371252633
1.3074749277160982
0.7904213265633169
0.7875257116340032
2.1179242352748555
2.1017989254080334
2.3102854604034078
0.831770830603195
0.8236112072826781
0.8349074243263598
2.27913717172529
2.017242149445437
1.4951402908793399
2.1759392130400577
1.0675606361223076
1.5350091220609252
2.3383370664794136
1.4616957716347883
1.3607622981842002
1.9646906265558215
1.5194018380108856
2.3561582261404532
2.246548558455487
0.8052356581109491
0.8612616669526845
1.8958382538861238
2.0975837510435493
2.2726340403967176
2.272322176479145
0.7886961153517346
1.515427972112805
1.372435102573264
2.3561400480278456
1.389821973660339
1.0982022001008342
0.8190280528060372
1.3647036626690878
2.3561669233499414
1.5308745515755073
2.2787138950675496
1.620865645660747
2.3355243280421876
2.34399103930301
1.2074468709810064
2.349320774199051
1.8881957295275091
0.9038970588341894
2.1235204031245747
1.096770303921215
1.4168096164993151
2.158633175530883
1.9650500420439572
1.818210829669251
2.2392152389361746
1.6409064122842378
1.578898318942805
0.9751635645288785
0.832509343806864
2.157193618441061
2.3486471479816187
0.8013084695262261
1.493121241516172
1.9352291495731733
0.7881966805291025
0.9557603733947129
1.6162744586340967
2.3194653692476406
0.9862935376049791
1.7152158536328521
1.7857789940261104
2.3544471153741076
1.0638608732103334
2.147535548688029
1.8436258672063466
1.5942375604900978
2.1768068273851187
1.6096550290878409
0.9100104375475662
0.7854046906098285
1.6257768179160093
0.9401791519308036
0.8420660036636464
1.1048393924998239
2.0951383075774865
1.2795196713858663
2.2846828624132405
0.8745695851378983
2.0839790337449915
2.355816969669131
2.356040368799971
0.9412608904298916
2.2866938500521283
1.82435472252077
1.6919595656093922
2.2475310939427047
2.263589971540257
1.6160749651774904
1.5979799571506577
1.8733824985618859
2.3470060122659597
2.3451551420549253
1.81862623534241
2.1704095047038545
0.8443117672078676
1.6116773159577362
0.7860799526772413
1.4931769287944285
0.8775599537435915
1.9478824393141971
1.4883754606128656
1.8857664193841002
0.82086106882499
2.167354882172896
1.6563649937447913
2.0520179391938003
1.998773158153846
1.5801075854958013
2.2700927917603373
1.1124587973319195
2.354540935178103
1.6585239501101512
1.8698019261023557
2.3545633135997153
2.274440776497514
1.1634672482104127
2.2883260547388864
1.0737236724634276
2.0842659482131585
0.8224599725023692
2.218845781783008
2.146443634436704
2.3020582622527805
0.8784110410160584
1.6648943048230653
1.0046889020614305
2.232023730050423
1.7965219188021218
1.7180442381438128
1.5338782919636045
0.9780526869441295
0.845737236951439
2.332843240747475
1.1866185545931713
1.337276604471817
2.2561436855000747
1.3535395887271955
0.9525380603985799
1.0444199548701831
2.155625217279625
1.72525410279211
2.135199578913258
2.043897276919935
0.8236229996316354
1.3970340455356962
1.1148585068728791
1.7083805601812019
1.6585370778340134
1.6191512612542691
2.277591947893198
1.9148382184833377
0.8199950833654384
0.7867705027388119
0.8104085778233979
2.0468695859073462
0.8007616545267975
1.3205446060243509
1.0427133507311115
1.8984633016089465
0.8704380998386689
1.9156072232088175
1.62156214384161
2.344211391582515
2.2621803072990505
1.7165598698513875
1.5682567408616763
0.9526419665348007
2.1800867079596635
1.4276662960644626
0.7895698968679556
2.2275045929982618
1.7266336099510764
0.9687136133104519
2.245844208374959
2.2004665968057107
2.3505786940524778
1.7999562093537032
2.288389000306848
2.1810727425661853
1.0058864882493332
0.9971479402154061
1.8919889303121211
0.7901320443020621
2.35559707360103
2.192242950792266
1.9452546392728784
1.3037792574227667
1.503145343854448
1.4332837121838522
1.604065560669449
1.4594161890671786
2.1957681817791457
0.7902853988562593
1.5218489925231105
2.349221872942715
2.129293362120035
1.3239140988465774
0.938089184810528
1.1568474687118804
1.8171185731078316
2.253979707606334
1.4509781093216723
1.1392480953105653
1.1475594300628285
1.2137227053307666
1.9405844603001197
2.0892698129697647
1.80976601373213
1.607099631177308
1.981501081345858
1.094578244652489
2.033450522400392
0.9080169474499643
1.4767372731810964
1.8734051421041678
1.4371524780336713
2.0254731921630027
0.8859374151849785
0.8228977116641201
0.8680169222381894
0.8018540527964387
1.3808694769403014
2.346231013773894
2.0222372139888765
0.9430406493445296
1.580771903141498
1.403782430464905
1.3257808986968385
2.2920519418121286
1.8225593463239396
1.2333854812871943
1.4349052837427716
2.3361564199998335
1.8450092457486442
2.1172157580435877
1.6435283841463713
0.8378889278460798
2.3423284990701116
1.0486681546465004
1.5293735575969576
1.6753059021559302
0.8010509002538588
1.1485965750612481
1.1022788626090303
1.048996133782064
2.1295636568676066
0.8326303918133422
2.106423874247093
0.8409255302262474
0.790607542479073
1.9456608193661016
1.2842230447065308
2.279949611429519
0.7938903165409305
1.2324643056284519
1.027365547138098
1.2821418260760729
1.7217827081134571
1.3312298327680017
1.718785528844151
1.5597976720806208
2.0652955479994293
1.1290593335711985
0.8664284712970982
0.8570963559881474
2.0297710379981893
2.355417596927892
2.0700165184808847
0.8145229890955807
0.8716690037186546
0.8055062530366549
1.729066020470511
1.3321999210546644
2.2737010360525085
2.12206421801747
1.10738297654579
0.8919602199528133
0.9528583140238831
0.9501210952442435
0.9430493863559793
1.9309802753334036
2.230692884294797
1.8223162498638048
1.6317787938575246
2.3215722646220183
1.0977629849977448
1.8377316251386406
1.9864071285492524
1.663179451042756
2.236846660102793
1.9185461481207293
1.3250521894334288
1.5409898740928856
2.0336101260871438
1.2238102790636722
0.7857652155321393
1.6092478733603959
1.3165066628804631
1.0593158330436991
1.9736615848561507
0.8987490092637794
1.980300817668679
1.7254222239160564
1.5105816146044253
1.2232156508229513
2.0562533794186586
1.6921420037717645
1.3163795163232273
2.345023316672399
0.8812670981894604
2.3251614302575474
1.1998767977287852
1.170758950382813
0.7920060191679014
2.2407413022177485
2.3264032510572785
1.722206855250988
1.7919222709701383
1.4344706065120707
2.1144677908794
1.9081859306914115
1.1922525946264029
1.0923592006998846
1.162619817665707
1.5307972289005862
0.8450362978863871
1.1082213022970282
1.7921107827338434
1.1487245672942583
2.0915714678502693
1.1030855584484505
1.865685725963698
1.3266207126687175
1.743552668469885
1.9123038451892491
1.5885161690253151
2.2441493712832776
1.3755532048638062
1.1770056458401903
1.2162643753065752
1.2839765317987475
2.097873726293135
1.8530121381114455
1.7170922107362543
0.9336949990269521
0.7949264784996694
2.1709021537095747
1.9810467546690411
2.3343993267623735
1.4138667905306073
0.8422117619235792
1.353654809637927
1.7069946559190934
1.5938533623387376
1.5988282127884963
1.108333685767724
1.852381020144368
2.2472424977859773
2.227399631881775
1.153265474755557
2.1001251580843077
0.886190462243909
1.5082518667876506
2.3524785749137953
2.3006100893973738
1.4920512099017669
1.7175299965855628
0.7858079615603466
1.218786282099115
2.0958282220107547
1.652073111296129
2.178920543447638
0.8225180470154879
1.378627875161176
1.380621686326509
1.0950028263785396
1.995931533636301
0.7942218366682957
2.3531564934626874
2.0718378406262916
2.2828510488506266
0.8120066858834896
2.29553929460032
1.4006319406473184
2.3175126062642546
2.3026093983609006
1.2163989773802217
1.2028895721161283
2.350161329389867
1.1672847844884162
1.4516723900795527
1.2258029512245394
1.174981840914114
1.4369457181884966
0.8058142219252672
1.987756654741686
2.1590523013384657
1.6656593788290914
1.7331003915792436
0.8998299172821856
1.9081440388135376
1.5065927639282581
1.3895119508418097
0.8330941151418059
0.8166698973967842
1.501301504359451
0.9471129440587318
1.7752323113247601
0.8166637039140583
1.4649180482692734
2.352152689582914
0.8926792942843785
1.4094684662947996
0.8932082174588631
1.4484501449523943
1.7028776819683704
0.8123269568230577
1.0793279915292322
1.6096994715346782
1.517293969832738
0.87999634288032
0.7854823896938948
0.7923776700045748
0.7883399214416503
2.335902682830523
1.6920065890666007
2.3399410078364182
0.8363569374244044
1.1634430234100277
1.5466966239907256
2.1323027308513276
2.136362162296604
1.2123309337224355
1.9240282765261587
0.8988625936728332
2.0158928810922037
1.8518720003636706
1.7280023412357126
2.1845767501815
2.3409022647693036
2.352371628721158
1.8869435950812827
1.4193197651576934
2.3189984344007577
2.28759513079058
1.671961440543503
2.204739363449422
1.2035924490985022
1.9561702313586151
1.5659880918680398
1.8202276426759012
2.2038774237454364
1.0880133585518235
1.6441807294950386
1.3095292593302392
0.796487440803348
2.3225402217645006
1.7222044057631578
1.8208342664858814
1.526596821588702
2.2238050718280853
1.0755969242897485
0.9055410391211374
1.0462927403292666
1.8499361492058695
1.8361257592782827
2.3561153227179363
2.114640783276596
1.4778925297066263
0.7873258880573533
1.5439642338046626
0.8679837067177885
1.6778336857452099
2.344243023953854
0.9244185245219428
1.9179788793976076
0.8965381424088169
1.3444369484911158
2.2640679965763812
0.8505774881819119
2.11420403338131
2.032590949102789
1.321836047955119
0.7896815861900368
1.0245556244097673
0.86009614347185
2.084592018713204
0.9490816612073325
1.5592700916049274
2.335782994824725
1.5198762260769676
2.1005249784264737
0.8100225464912826
1.4894996118549155
1.623227898824267
1.4625532795453897
1.7899474858704896
2.3245580673739
SCALARS beta float
LOOKUP_TABLE beta
2.070774562972418
2.2580004769117936
2.793283954722941
1.9862767274664577
1.9844729197109225
2.52783471508294
1.0240707081422296
2.396806528166371
0.9217856401214574
2.084345961331219
1.5194635900318798
2.201805534162726
0.4908951237792841
0.23943947699673243
0.8769056104281604
1.6017810337555218
2.983383184302156
2.7198383152756356
2.637469300562386
2.8023902797875997
2.872239432221854
3.035748743174453
2.790000497713642
2.631994679520262
2.439061098809123
1.0426462267994434
0.5227179048918632
0.6636292255692808
0.9438338885520006
2.0536006399476907
1.1318490470779976
1.8428367388430098
1.3714187743238917
2.936029113614309
0.4200801608459611
0.3846758769371875
2.510604613369771
0.3313706939053648
0.21093630315269518
1.7161408029345917
0.8332800837266673
0.1922990128440425
0.24669352607184158
0.34845439562755814
2.5868692285620907
2.1644470007729595
2.269458184827586
2.730790565801748
0.766712725457321
1.6408233575920752
2.9647303473221798
2.13352107578759
1.06716899855826
1.4142516822613485
2.0627823019307185
2.655267741906774
2.3318719760659166
2.820327822862184
3.107572032520876
2.310470041433142
2.081104219760399
2.5977128752994054
2.256882171783364