# vtk DataFile Version 4.0 
Unicorn heart vtk output
ASCII
DATASET POLYDATA

POINTS 1000 float 
0.243015 0.258088 -0.038421 
-0.263108 0.090573 -0.08027 
0.114864 0.085202 -0.078492 
0.124037 0.315852 -0.19314 
0.284145 0.221226 0.092206 
0.15151 0.328413 -0.131006 
-0.031521 -0.20504 0.051355 
0.01222 -0.138347 0.034256 
0.162758 0.435369 -0.129372 
0.005681 -0.21226 -0.056676 
-0.033625 0.041334 -0.005323 
-0.367631 0.127139 -0.044286 
0.123649 0.312771 -0.15554 
0.050399 0.010318 -0.150914 
-0.272453 0.104392 0.117054 
0.07206 0.227232 0.026972 
0.052105 0.038889 -0.22611 
0.123016 -0.020024 -0.125716 
0.066569 0.009653 -0.013599 
0.038299 0.179166 -0.202851 
-0.15816 0.069832 0.125633 
-0.002792 0.162131 -0.165409 
-0.012539 -0.063455 -0.166837 
0.246899 0.191055 0.034781 
0.377357 0.258032 -0.143052 
-0.126886 0.41598 -0.013078 
0.195525 0.220471 0.030467 
0.388309 0.302419 0.00339 
-0.105374 0.130729 0.125523 
-0.061959 0.334291 -0.069399 
-0.032291 0.342913 0.079188 
0.093811 0.259528 -1E-05 
0.182026 0.302385 -0.188717 
0.23949 0.276696 -0.092369 
0.095169 0.007641 0.070131 
0.210191 0.162744 0.184441 
0.233142 0.314452 -0.001652 
-0.012129 0.089942 -0.157195 
-0.203775 0.325193 0.169683 
0.143498 0.229537 0.00275 
0.368987 0.100443 -0.010912 
0.171841 0.214747 0.148404 
-0.258743 0.255414 -0.054819 
0.049215 0.29023 0.224972 
0.087205 0.271677 0.13107 
0.197501 0.066237 0.067207 
0.274173 0.164565 0.008648 
-0.162749 0.092559 -0.072927 
0.397689 0.267567 0.070285 
0.205252 0.024211 0.001724 
0.074059 0.074112 0.084729 
-0.091921 0.394562 0.170056 
0.230995 0.245224 0.001565 
0.193382 0.158355 -0.000157 
-0.079887 -0.163377 0.07397 
-0.021999 -0.091262 -0.069009 
0.083097 0.287724 0.206574 
0.11509 0.00026 -0.07945 
-0.184846 0.179122 -0.09026 
0.061881 0.368643 0.193063 
0.108431 0.411551 -0.092257 
0.168212 0.166151 -0.104203 
0.005572 -0.179724 -0.090802 
0.128283 0.260031 0.008739 
0.057388 0.037471 -0.215185 
0.279778 0.168337 0.074648 
0.186163 0.211684 -0.00973 
-0.218791 0.100261 0.142193 
-0.244576 0.269571 -0.001802 
-0.220378 0.261993 0.024953 
-0.198263 0.429337 -0.031555 
0.11331 0.110947 0.052452 
0.153189 0.470288 0.0892 
-0.105044 0.370876 -0.074522 
0.056016 -0.016935 0.064747 
0.149644 0.084889 -0.214543 
-0.078849 -0.01749 0.162151 
-0.022954 0.036749 0.157624 
-0.287746 0.163277 -0.003232 
-0.202049 0.323602 -0.047947 
-0.228056 0.201524 0.164275 
0.173128 0.406766 -0.086523 
0.012935 -0.07052 0.042315 
-0.036053 0.068294 -0.22699 
-0.085209 0.322895 -0.08423 
-0.070179 0.04496 0.151345 
0.253227 0.308853 -0.172709 
-0.012258 -0.00437 -0.006719 
0.111184 -0.207895 0.128092 
-0.162384 0.4306 -0.11078 
-0.096674 0.040859 0.091851 
-0.328084 0.393369 0.089167 
-0.18885 0.149946 0.003613 
0.228257 0.324979 0.097418 
-0.061206 -0.135505 -0.097359 
0.138278 0.215116 0.002301 
0.32301 0.029642 -0.012656 
-0.128465 0.417754 0.107205 
0.122666 0.141716 -0.081303 
-0.150179 0.151965 0.215208 
0.245311 0.257252 -0.037229 
-0.246187 0.235134 0.071373 
-0.22414 0.114184 -0.125017 
-0.029589 0.08373 0.1237 
0.201243 0.245313 0.200132 
-0.00364 0.173808 -0.179386 
0.0827 0.323913 -0.102159 
0.090517 -0.078123 -0.177078 
-0.003135 -0.203625 -0.054626 
0.277499 0.283942 0.079471 
0.288117 0.207101 -0.02951 
-0.024382 -0.098945 -0.08696 
-0.141212 0.194307 -0.226551 
-0.037693 0.363981 0.039081 
0.22895 0.209338 0.068579 
-0.163241 -0.014458 -0.190689 
-0.12718 0.258075 0.130177 
0.300564 0.276462 0.05173 
0.206748 0.015949 -0.011516 
0.16203 0.324051 0.073075 
0.152529 0.475176 0.069802 
-0.094723 0.395169 -0.08487 
0.166283 0.242463 -0.022178 
-0.248473 0.453592 0.083151 
0.238414 0.300324 0.111312 
-0.284413 0.202323 0.096148 
0.260127 0.102207 0.041602 
0.06743 0.099828 -0.128788 
-0.178615 -0.035047 0.198359 
0.142166 0.450715 -0.043077 
0.203298 0.348961 0.036623 
0.058097 0.349284 -0.192456 
0.195587 0.38259 -0.130454 
0.236118 0.166012 0.097238 
-0.136947 0.346563 0.118537 
-0.027163 0.092381 0.079401 
0.205105 0.535108 -0.097175 
-0.028541 0.19551 0.167096 
0.022014 0.135767 0.00266 
-0.179513 0.283056 -0.201566 
0.047493 0.197392 -0.162498 
-0.030367 0.117413 -0.121727 
-0.204607 0.321102 0.152932 
-0.167687 0.21925 0.100986 
-0.062529 0.046899 0.216438 
0.165946 0.415928 -0.101493 
-0.114933 0.228825 -0.092565 
-0.050962 0.341781 -0.178987 
0.079779 0.312011 0.052435 
0.180753 0.363247 -0.1051 
-0.022392 -0.06082 -0.176958 
0.103023 0.079028 0.000745 
-0.253558 0.135557 -0.176863 
0.234727 0.095997 -0.116427 
0.02261 -0.103927 -0.020266 
-0.010688 0.410789 -0.029737 
0.202111 0.275971 -0.000691 
0.243962 0.318681 0.089533 
-0.050743 -0.160239 -0.050959 
0.117997 0.168009 0.011702 
0.099245 0.12378 -0.240389 
0.292563 0.220583 -0.060355 
-0.265034 0.237236 0.08792 
0.234823 -0.075003 -0.10163 
0.109313 0.195166 -0.128253 
0.234187 0.124188 0.073859 
-0.273196 0.361426 -0.076821 
-0.130569 0.264489 0.035781 
0.330032 0.320381 -0.163219 
-0.09785 0.110994 -0.162825 
-0.141347 0.114692 -0.057526 
-0.049721 0.063155 -0.230366 
-0.050267 0.129178 0.14382 
-0.046278 0.191093 -0.147761 
-0.055346 0.021026 -0.161472 
0.222741 0.279693 0.059581 
0.362044 0.391826 -0.076784 
0.065273 0.377976 -0.07889 
-0.046748 0.173689 -0.094164 
-0.295898 0.316444 -0.150365 
0.077994 0.313034 -0.053885 
-0.08651 0.309413 -0.107462 
-0.310589 0.176614 0.069434 
0.15757 0.078536 0.035114 
0.095386 -0.188553 -0.157432 
0.050235 0.006984 -0.164708 
0.222604 0.217595 -0.107187 
-0.142389 0.288394 0.244194 
-0.24545 0.23623 -0.112248 
-0.240668 0.151929 0.145088 
-0.243835 0.410764 -0.081335 
0.075782 0.272019 -0.059595 
0.30053 0.083529 -0.09971 
0.169942 0.38465 0.109349 
0.137964 0.306509 0.064231 
0.182472 0.168641 -0.238183 
-0.30007 0.238607 -0.057678 
0.297528 0.152419 -0.082399 
-0.145227 0.277492 0.104489 
0.195694 0.381327 0.19056 
0.036862 -0.236541 0.066272 
0.026696 -0.16656 -0.004386 
0.232645 -0.046405 0.021118 
-0.08036 -0.042352 -0.008759 
-0.271301 0.193347 0.106722 
0.188059 -0.015802 -0.085116 
0.024643 0.0334 -0.087882 
0.046317 -0.257054 0.116503 
-0.291514 0.235617 -0.105355 
0.00399 -0.141136 0.00271 
0.105619 0.385238 -0.223797 
0.007322 -0.250093 0.038162 
-0.197503 0.322399 -0.005823 
0.078204 0.135289 -0.155199 
-0.121564 0.266273 -0.01262 
-0.096792 -0.250591 -0.039482 
-0.089078 0.261318 0.157561 
-0.041861 0.103181 -0.086684 
-0.284875 -0.000451 0.100338 
0.192529 0.350022 -0.054621 
-0.2229 0.245957 0.011615 
0.133216 0.317124 -0.107744 
0.007121 -0.142255 -0.032377 
-0.29675 0.171922 -0.176325 
-0.167908 0.407231 -0.045346 
-0.254259 0.20259 0.061301 
-0.230193 -0.055366 0.095887 
-0.053667 0.060197 0.142323 
-0.261114 0.226584 -0.019872 
-0.30472 0.290898 0.045802 
0.179975 0.267052 -0.021251 
0.123858 0.195447 -0.186163 
-0.285107 0.306862 -0.012427 
0.052701 0.278639 0.099246 
-0.039383 0.249776 0.207752 
-0.20614 0.127238 -0.018689 
-0.090128 -0.06232 -0.116524 
0.122293 0.277953 0.163944 
-0.102884 0.267275 -0.080522 
-0.266568 0.228124 0.197804 
0.130363 0.44504 -0.01181 
0.216878 0.149461 0.016048 
-0.259739 0.352054 0.187508 
-0.06212 -0.021872 -0.123345 
0.118438 0.012593 0.001133 
0.222853 0.12171 -0.157702 
0.19146 0.109527 -0.066521 
-0.020444 0.139197 -0.243904 
-0.139276 0.042663 0.142314 
-0.193348 0.247765 -0.082218 
-0.374104 0.21456 0.108514 
-0.179359 0.378568 0.004052 
0.286361 0.202428 -0.066767 
0.181646 0.076813 -0.167233 
-0.053059 0.033642 -0.049192 
-0.018878 0.41125 -0.094534 
0.119492 0.230633 0.154839 
-0.005234 -0.225599 -0.008255 
0.293261 0.32682 -0.195893 
0.031003 0.044446 0.150872 
-0.127465 -0.041064 -0.090565 
0.22527 0.288633 0.14278 
-0.122579 0.16129 -0.088691 
-0.10889 0.392761 -0.06062 
0.198941 0.06722 0.070544 
-0.09528 0.096604 -0.117523 
0.211923 0.420859 0.163954 
0.202955 0.146739 -0.120268 
-0.117306 0.354911 -0.022021 
0.060917 0.2405 0.193052 
-0.092286 0.287084 0.039359 
0.091471 0.291672 0.222304 
-0.186891 0.237928 0.146446 
0.162809 0.253766 -0.010707 
0.311898 0.17231 0.14406 
-0.188019 0.289648 0.078237 
0.125786 -0.001215 0.05553 
-0.238238 0.305431 -0.139393 
0.124636 0.299304 -0.001539 
0.369836 0.085368 -0.033469 
0.069795 0.389293 -0.020584 
-0.094808 0.101994 -0.074443 
0.270237 0.05126 -0.019245 
0.043904 0.203949 -0.155174 
0.078065 0.292441 0.114104 
-0.256319 0.369377 0.003102 
0.040738 -0.047781 0.022732 
-0.326885 -0.000267 0.037603 
-0.107073 -0.062436 0.106546 
-0.087888 0.29331 -0.101685 
-0.191779 -0.08988 -0.021548 
0.179936 0.35797 0.116241 
0.273469 0.152469 0.079543 
0.273137 0.163657 0.00178 
-0.183584 0.109016 -0.033688 
-0.132351 0.123751 -0.214278 
-0.049847 -0.133647 0.084152 
0.174937 0.336312 -0.009232 
0.199783 0.323127 -0.215987 
0.122373 0.129049 0.147253 
0.078021 0.369441 -0.015247 
-0.315919 0.246043 0.122353 
0.130273 0.224884 -0.009437 
-0.257022 0.077752 0.168263 
-0.247716 0.381158 0.091608 
-0.057129 0.23756 -0.087731 
-0.157571 0.140431 0.220182 
0.174817 0.380331 0.072168 
0.202667 0.089052 -0.05109 
0.055649 0.377341 0.040436 
-0.056942 0.028622 -0.058355 
-0.004164 -0.10713 -0.147126 
-0.274499 0.306058 0.032944 
-0.235388 0.31895 0.06745 
-0.147251 -0.065489 -0.157952 
-0.268853 0.134962 -0.07965 
0.25388 0.237075 -0.119186 
-0.12197 0.236781 -0.171344 
-0.077735 0.171213 -0.086654 
-0.335157 0.016529 0.013828 
0.232322 0.147342 -0.020993 
0.071999 0.005032 0.007422 
0.235422 0.321533 0.177039 
0.13353 0.383734 0.115301 
0.06877 0.233093 -0.153895 
-0.10528 -0.041857 0.023672 
0.062989 -0.032275 0.068315 
-0.072013 0.376175 -0.149664 
0.290547 0.232209 0.014915 
0.246758 0.307228 -0.062724 
0.28777 0.411848 0.121057 
0.180704 0.351314 0.048257 
0.178867 0.268172 -0.129258 
-0.087568 0.328559 -0.158386 
0.123899 0.304837 0.043874 
-0.208347 0.302736 -0.175504 
-0.047696 0.041142 -0.171663 
-0.133921 0.294135 0.010736 
-0.101706 -0.08117 -0.187148 
0.006111 0.128542 0.108035 
0.201493 0.175648 0.068159 
-0.058179 0.302646 0.104442 
-0.024069 0.032865 0.064685 
0.395701 0.290786 -0.050425 
[...]
POINT_DATA 1000
SCALARS alpha float
LOOKUP_TABLE alpha
1.4278228745601331
2.2915641490613567
1.7241335414125154
1.226359176253891
1.6918791852572053
1.3908742400499885
2.223512153677854
2.1613462174552334
2.253744212817435
2.25117914999928
2.3536800962124347
1.999959899527466
1.5362565668225616
1.6982677254689957
1.8212279277726569
0.8077386496855624
1.634026132613793
1.8628949072593077
1.9691161736315501
1.4972954724882213
1.864144026764104
1.5421410083807272
2.042903890102871
2.201212833413374
1.6517976192189567
0.8329674246192045
1.6212521486319984
1.282131620237359
1.6994427390387785
0.7877809075273785
0.8468457692464653
1.5140345548560448
1.7669295462787
1.4683494179157595
1.241758347737302
1.7995485884600155
0.9161736070466167
1.5907966975728751
1.3075535248375756
0.8495962423684049
2.137403104391748
1.5591841060686948
0.7880059850743927
1.9703565044391471
1.0887251036799122
2.345299008586114
2.349334401745575
1.1557444681773865
1.1487323135555814
0.7915249014193202
1.7507451285057323
0.9077865379860705
2.1187823048980867
2.3505010222916765
2.2816203546599803
1.9778410512305735
1.1982561829188794
1.8885473157629558
1.4661688534115254
0.8048565986266017
2.2514694558259656
1.5933988121535245
2.1287681479591
2.1656901173494356
1.8155986369028199
1.9122277839154398
2.3203477773066283
1.7896529098764486
0.9186374984428642
1.2632368471189352
0.8469770944235181
1.8178842654409764
2.0902040279032548
0.7854024371671088
2.0758108724223514
1.8951199030493437
1.9282491613186024
1.364712623686922
0.8355732048841344
2.002491221540848
1.618378158253316
0.9270557702543981
2.1304129282267206
2.177868375475191
0.7977488690220861
1.7980674630874527
1.2508275496935672
1.873898014669899
2.257646939189372
2.280293958630441
1.736516259529928
1.055367271168359
2.3018414190999836
1.9254182159186297
2.025902962424134
0.8116755571048563
2.335645763334029
0.9166668506808986
1.4937616361415755
1.6125034836364824
1.6302163938826715
1.3557220681027315
2.309114271229839
1.444359811946288
1.6593217713072952
1.3419906161092277
1.0371116174172306
1.9494663530310763
2.2088549455939126
1.0107403758328182
2.127382489496825
1.172707499978432
1.8202408771228749
0.7859905816380115
1.8908601814574255
1.0957570037511222
1.4450188038848788
0.7968700008174001
2.265797985087674
0.8319330174426555
1.9490309759726294
2.3117351529071133
0.7953867780490451
0.8916965633518305
1.65387538288725
1.6311539927963785
2.353884598851798
1.7722780678426393
1.918981767097176
2.326603358399731
0.863716593658951
1.1080029920415273
1.1482229659470895
2.080708614031105
1.1974811483352756
1.644135691656498
0.9140728284265918
1.4846042570307556
0.8094287110894098
1.6771350306099724
2.008166853416893
1.7159416181000116
1.4909983394473525
1.614883596092094
1.929416423689243
0.9378495804765419
1.5436211700788387
0.8526141380304725
0.7855309699885848
1.1477291792878777
1.318223947057891
0.828790494437821
2.2980561013253973
1.9501485698356082
2.196326747782713
2.3555333977496997
0.7970983300266136
1.1424989955479616
2.3105164661990423
2.146071470915374
1.2939544195409975
1.8455418674058193
1.7068836358327928
2.1910243671356486
1.5173152726549508
2.192002418178908
0.8048741867575628
0.9601952991675976
1.392303557581524
2.0123075881958914
1.9256701795350664
2.341815754974221
1.8137596918032417
1.515355429601457
1.819082283431007
0.9149774557133317
1.0658553346426107
0.8263075209427908
1.2079649199964881
1.0803995640283677
0.8229239866747763
1.0654432631274944
1.9382036011927957
1.9943034446664036
2.162795854582142
1.7158029978097618
1.6571796665869314
1.580694525589291
0.7863547659881774
1.4178524673269812
0.7970275512903723
1.1559662770643757
2.068508266613015
0.9153750883472785
0.9302426621386207
1.5118535642565203
0.7986502148910221
2.018314092487786
1.2934473175893868
0.8901257888690147
2.1745024511295243
2.302974575201953
2.290750737459453
2.356162578325821
1.817884980801329
2.184940637797778
1.8893046107717455
0.9215977042287188
2.1372730346673263
2.107792006276253
1.9215303353910649
2.311267989992405
0.7892008136074954
1.680312058319633
1.8941801288862632
2.347336456407287
1.3389338814236933
1.6816360281292078
2.0612679900536324
0.9684523883603207
1.9175165075852936
1.1992702070299321
1.989125226874301
1.9673666542791621
0.7854172860624887
1.7809468250835783
0.8920480339597371
1.6100333749777693
2.0020884068869007
1.1217554823005145
0.979609283318737
1.548051702233954
0.8244102853904786
2.033489491983278
1.2049385584300627
2.3432818951720225
2.152370764809723
0.7873600440267983
1.6433278851703268
1.5619704792451947
0.7965373480051805
2.2934133762029925
1.2491449489057034
2.0917312750775783
2.3560931261606353
1.3769609051118197
1.947926240335344
1.25315147497402
1.9106367461249103
1.6565737398456346
1.8251330381561301
0.7931410747448686
1.884683491493084
1.8499370141407494
1.7131886842600428
2.342996943242658
1.2284418514781708
0.8808929347849536
1.4073001712086177
1.3100806531370117
2.3282249117066947
1.2914337208739313
1.4714816148323573
2.30896671301257
2.0810172282880606
1.4163667957510193
0.926494727348397
1.449720714097424
0.7883161416374446
1.94139173828913
0.8070534484569586
0.9300609376820853
1.4814041899649617
2.3073262167083626
2.3227186601338476
1.3464063306387035
2.1713620883431495
0.8770417455921191
0.8135284600518704
2.1046198230552147
0.8065328031061172
1.857316785340502
2.32153484078708
1.4577637553904481
1.1123543573131167
0.8156463552625219
2.1758467387541676
2.131585801935426
1.9706925634534653
1.9656429248887626
2.3476631312986083
0.8185781715294362
2.3475872988564546
2.1624306824031305
2.2992714016079963
1.678266884805797
2.2145375748144343
0.7986092654118501
1.7990964706176829
1.5708127845638036
0.8076540805010244
1.4225899229235148
1.0229853154657178
1.718803309132445
0.9650885321957298
1.2053143633486518
1.9267423196696192
0.8514968339786088
2.076799556624731
0.7862590134184025
1.7428225000505593
1.9999643398381186
1.0285956702502483
1.2937553090267142
2.354703968760367
1.0871627071006003
1.719919879278284
1.64619337330633
0.9129074381737742
2.3012604039457107
2.287062994315335
2.2904291467442457
0.9594530814700272
0.846239436906629
1.5161962300315028
2.253914622760995
2.112317132909909
2.3240664063176646
1.2659574068715496
1.408379321841259
0.7879980210942635
0.9554905989296177
1.601270165729191
0.8824248804644125
0.9389244075357974
1.3205475953931296
1.2639369030002836
0.8241811824772071
2.3534796440148478
1.6092404190360712
1.6170082209115595
1.0832581809466344
1.699111759637347
1.3063290011822972
2.155960109317994
1.6726890900334588
1.279213137255069
1.6622510374669024
1.7518572890140418
2.162493305545915
1.1091513810077118
0.9476576352858451
1.7529855522155122
1.1544729531325228
2.354516149782943
2.2830482317523093
1.6907720617762472
2.2511035154847514
1.7460282902417463
2.1289126621502508
1.6364160810705588
1.6938525509263094
1.7348312204903977
2.099820736349177
1.350163822097683
1.36037587453861
0.7862284868934672
1.5403552053783514
2.309566802834478
1.3648769226931379
2.2359345596542037
1.649419839268211
2.06657522713613
1.364523303864693
0.8244384685584648
1.0278747376749702
2.247004876957954
1.3296346003009867
1.7080604117290976
2.3553181918506496
1.057387733904066
0.8369816994460146
0.790761241774581
2.205069313859142
1.5620825272228596
2.327804847259882
2.042017222044052
1.7494516512380245
2.1890497498611086
2.3552357390644945
1.676495151265141
2.1027130134972163
1.008461762809507
2.2266569741642046
1.7020851401839434
2.1844838666699506
1.3529167578561923
0.9980051798235877
2.2060529556714856
2.3285035362591286
1.2639681318774758
0.7854086989358904
1.5335356400860978
1.7191733098941804
1.429176510535754
1.2216993618463368
1.8438119978178553
1.326964028684816
2.0919769537181607
1.1339755041409838
2.142365686075292
1.6537994489453676
2.2962299637520256
0.9687277814925971
1.3082238342472954
1.7548425647131998
0.9887241497259804
1.839064349155794
0.7859876932544331
0.7856667078709572
0.9312384877820409
1.8968898482197718
0.796292009653559
1.1462791366742207
1.5495612585895173
0.940540499127528
1.060628117716508
1.233488423433535
1.5415136575531003
0.7855787858147327
1.0587232891701206
1.8817786172189481
1.8012837424490864
2.2769233662587056
2.119530822713028
1.8203626009419496
2.35483832268113
2.159591899272526
1.9080230997774155
1.5509713028468974
2.1177764295942527
2.114692156390353
2.186012222203933
2.2219819240685745
1.4932811985050518
2.17188349008327
2.2244699176920206
1.456397086994886
1.9954523518455154
0.8710105190013226
1.1042194827897527
2.0716874295033194
1.9681877330975306
1.2298229636509512
2.3340133680937796
2.254464957787186
2.2355105081490803
1.1949566462618293
0.8498020721719519
2.1048344077229957
1.503885620274776
0.8844015221781033
1.8385728576576388
1.0687489949113913
2.052698208880368
1.0732962808719249
0.8575244294502075
2.207449331899312
2.3509498058855454
2.3299061252269486
2.344261826942725
0.881793065170249
0.9532952325168523
2.3445137998113594
2.1883690977420693
2.3418833612296357
0.8135462776886155
2.3069449389015535
0.8347898651240163
1.2229410607436968
2.222435105810375
1.5912339998526943
1.3363998509024548
1.724854633265493
1.3696504104025906
2.3200512685727848
1.4155517163030213
2.3090176825218713
1.362782298116397
0.8611706585613694
2.271101729624941
2.0330454147068657
2.1005882131208433
2.355804864851486
1.8121523566564666
2.3429753091346712
2.340269778088909
2.1381883931472783
0.9168321216543469
2.3314584944544414
0.861515833663578
0.8341003049867692
0.9483468821855754
0.8259590142607475
1.181497633547752
1.8169843684372453
2.3409447673107047
2.0385970913847853
1.6314172289388253
0.7932584234335633
1.4036693327136784
1.374726964041625
1.1596072304638665
1.464653405503915
2.2618365957849
2.1535875219785625
2.351446601569073
0.7887639179942485
1.9325479620042338
2.2831863722895975
2.0309211348113223
0.9441380559932957
2.308057221247809
1.6974185619443398
1.3194729382890464
2.3448194792966848
1.7880681111268724
2.0934606792408363
2.3351141042189982
1.3155186619519394
2.3100746647002444
1.466430130125005
2.314887669591285
1.5569074386300732
2.2940316518868644
1.1293962343506672
1.178176425489555
0.8008752346452662
1.8903265881546978
2.154426605974926
0.9370955118538432
2.16055708040757
1.3673831762242064
2.188974976271729
1.1739022297336086
1.3250856182354656
2.3076544176266385
2.0698775531308513
1.5883303182774302
2.1832182156981657
0.78713330383215
2.288188773045659
1.8387980312732548
0.7939945603321776
1.409492690266766
1.8764944070362017
2.138308797346432
2.3015091482440355
1.5941919666224882
2.2770194180890715
1.5759644347268051
1.2563028627016462
1.7327533566319304
2.312196914471434
0.7935226755608046
2.079220464454857
1.9095751041874232
0.8669311901201975
0.8475280670306186
1.3824981244610943
1.4283202787096339
2.3561120206495243
1.6702505302339223
2.194613646902704
0.8120186153656138
0.7906157346641864
2.139580700315347
1.7928514553989392
0.91355076700727
0.7865338560472067
1.0355890249312127
2.31306256386794
2.2930141892869123
0.786970988242736
0.9023673699726026
1.9144434617623352
1.4517700156533655
2.254039131785293
1.8429037124827878
1.5153523236447983
1.5591124800663076
1.826201530044908
2.2062955724575164
2.3367878778360267
1.2298663843098951
2.1349834981999916
1.71632544571524
1.62057797746891
0.8287847185186503
1.7278595153952898
1.0101613058612382
1.9739253287072225
1.7777142015854026
2.3512756907902386
0.786370653347874
2.3020893425918643
1.6059222491521798
1.0758493792548216
1.7897894833265187
1.5398151725023246
2.2162915252985274
2.0865517988912003
1.8853451422251883
1.7317119341260943
1.6227597289160047
2.2980904540276716
0.9633097377726438
1.1334451237869725
2.089383200195124
0.8021639498414197
2.0882169072612924
0.8214503856715699
2.1755883544243027
0.7896292187651964
0.879599625135695
2.2499769154280203
1.609140036179625
2.0791450837440486
0.8734853523101893
1.6870754747565375
1.5189763986925569
1.578214743908655
2.183394465533116
1.301994987672238
0.7864554866148851
1.0075059124795624
1.8260566740427717
0.8871849839793501
1.4308355687516623
0.8625813890046877
1.1223920287377172
1.9246595436205425
1.331904441692801
2.1196948204609085
1.9428633712622556
0.8581308691311184
1.6570958221558425
1.8059240289679412
1.592543470574574
1.4669408776468487
1.6542408177212709
2.253361718327123
1.8762745697661602
0.8505496278374979
0.7866120850712093
2.2925603908253867
2.2494275497749
0.7868251384402188
0.8789817372592429
2.211756114551848
1.1730344651344389
0.7867704938347152
2.072327698146629
1.8243054175775568
2.324459885006392
0.8903732526939584
2.2464165304723003
1.4600745863493811
0.8000459358368239
2.0288498566830264
1.738273620518247
0.9009287179499115
2.3205481890729187
1.8629185310464271
1.474599666530981
0.9039426748741998
2.278928422177507
2.2924006945238804
1.7711578387177265
2.3518426308186533
2.294199620079142
1.0108361664338261
1.404309884750834
1.5395424798002297
0.7854080155560811
0.7859687247705803
2.1375835124735514
2.174764974300283
1.0649766107464513
1.3704639706241322
1.4550351952244416
1.5629583277016548
1.4596746402265226
2.035183463444575
0.7858739044376324
1.6130493226607867
2.3560355787567393
2.168885362562449
1.510640969667921
1.6308563503067781
2.051136439889579
1.7933107046402497
0.8318911553059363
2.3482510410667548
2.097590967388525
1.122561321039474
1.2707976132040382
1.8464018350589035
2.068665623357939
1.9202832819074191
1.7013759519248086
1.5533584158844749
2.2397798973284857
2.063228794473175
1.261416810828105
1.725794755859655
1.884158856494003
1.5625803229837938
1.0498318088186653
0.9767583239661342
2.015381082161875
2.280972060905354
0.7919835488497268
1.4381517765909526
2.2809926703241516
1.739853507640766
2.2591209059453705
1.6874827394616896
1.4334903077988748
1.9954192780467699
2.263930892911494
1.965244948106511
1.290964540709173
1.6014001371313709
0.7961424306940451
0.8016003278940312
1.9531910617722987
1.7775058691521433
2.0541734813881245
2.3051809272899715
0.8241978892903455
1.6834960610498817
1.5858382786120018
2.334098034427769
1.1122465219486115
1.9380399037613054
1.4024417371663551
2.066269960193515
0.8792080232935156
2.068371831658062
2.1987154449413078
0.8365610193716047
1.0820658456695604
1.8489547387402259
0.8651390339553731
0.8159165675465008
2.1221401056893034
2.0905346861764347
1.3674845025772684
1.5692137831869173
1.7675357346047345
2.114313837270499
1.5683629192476831
1.0480055650832505
1.2494735176987017
0.8566999533905637
2.240956092168606
1.8499534202225985
0.7854197770217834
2.355291626965865
0.8050670459126751
0.9775304790293462
1.3385883534851735
2.039468756415163
1.4491767125738422
2.1536792873956476
2.1569351859327286
0.9462769168112097
0.8958954762542986
1.0803092666951806
2.2059739323191274
1.0462035853692062
2.0790091015904
0.9142185323225129
1.8133664611415925
1.5957977791599298
2.353111212607344
0.8060400938189868
1.7846258766965628
1.7835457518447153
1.5531254839836084
2.019144108290206
1.2264909021866715
1.8521445011492081
1.4940049540739897
0.834405929381441
1.9172989926835695
2.356184235549159
1.701083635620188
1.6761108240656617
0.8938127815188337
1.060718749129052
0.7862918868331363
1.901697106725706
1.227906909670904
1.7127247090871307
1.2088087065021385
2.135033533844367
1.6639876589911704
0.9194081932456533
0.7857289368430538
1.024610445974342
0.8105178979484138
1.3575625595964176
2.1872604625771057
2.2794622228942196
0.91673943666491
2.263162156262787
1.6977585498948482
1.4023107267712613
1.2657220486383411
2.1443617851532073
1.9931386764622783
1.144474610747536
2.0421991311477248
1.1759597613815647
1.6028999770007033
2.316232034016446
1.1236287083049488
1.2306490734198714
1.9902463172638538
1.8764610392176795
2.1564718270172274
2.3534260765756985
1.9321150467081725
2.0102383116656624
1.7102611689041705
1.6669615587303792
2.303918630688768
1.3532105689115193
2.1210796775500316
1.9679084369233792
1.5009180774548765
1.0545554911685018
1.7289083894148487
1.7694965877517899
2.334117047471479
2.335351614271462
2.3154408191159277
2.029073719771259
2.3450821297659856
0.9877287281428118
0.9573316719665682
1.2643503745997067
1.7925360549195644
1.444293851507284
1.5321600570363707
2.0969155834060227
1.8316958890879247
0.8777261526800187
2.222941522405412
1.064987636578007
2.1996220335472265
2.272275435104874
1.4042427901721664
2.352223433790868
0.8851849231576286
1.5679667979891219
1.3002409003609763
0.7860023362312024
0.8398884750075303
2.348961044708934
1.6497570403260196
1.5783245698890875
2.2913464119544455
1.609563181030588
1.249700747773893
2.0238436039971153
1.969711344126361
0.8730765341178023
2.3387941943335417
1.2816189989327913
0.8802920908246652
0.8045489998919556
0.7982907222576646
1.4914150070739565
2.2098451450391305
2.254667684824379
1.211121369767506
1.416089475575361
2.3125267133232463
1.4560941503250646
1.4777577526225936
1.288264200179217
1.268204236944664
0.7854300142114579
0.9057532310318914
1.19196702783044
2.342225228979851
1.1391324012181068
1.491106307280129
0.8812625698858602
2.349100283001095
1.4102817533039835
1.4676152194578622
2.355233347857234
0.8914899570538359
1.6109864012557238
0.9668672783862237
1.3549060783948952
1.1008033067596983
1.6819329492522597
2.3554766604022204
2.2840595015678615
1.340549527465126
0.8523547032087444
1.6653055975347166
1.4021570719085887
0.8421761525349513
2.091390975225052
1.5853820933156118
1.5495644529891424
0.796145380019742
0.7858398872478561
1.2123166025038128
0.9106766578902622
1.8420041119008639
1.8104103464858436
2.289351400868688
2.3500593611758744
1.1665094407289829
1.5556103147996108
0.8001949099586624
1.9782644415536534
0.9744160675190519
1.2807075229033744
1.1482341357904442
1.0796173360019758
1.3589162519122187
1.4506966337056975
0.833830962111869
0.7863803438642515
2.233726881498433
1.268393429130944
1.561599444656399
0.7910930642770587
2.329321307390934
1.3847738919771126
1.898871984878078
1.9288688589411154
2.0784565434867193
1.455185670309184
1.8486383464446694
2.1078445280418507
1.1434464519337109
1.2274351689624312
1.8769305506790455
0.7859520169880252
2.317204211459273
1.6594798322981026
1.7626711573055018
1.055039652201171
2.09878653324894
1.231235763013972
1.052359351909944
2.170014565277418
1.944881055194871
1.8756604897096725
2.3525740530352977
0.9476344498465727
1.88237201482431
0.7854161449176258
1.5204460392748553
0.8822901774843888
2.2372508851661794
0.7903629766494613
2.2098203787320214
2.0933104278654198
0.8708431616467546
1.4691294628767553
2.1832186481500724
0.990499458252334
2.108045213903354
2.355977452456931
1.8240784341792478
0.8396386514925299
2.1589518906818563
2.3119375944403395
1.9284557801321232
0.9522846455831008
1.7024938683433324
2.3561944179112877
1.6376077164363196
2.1605770445018195
0.7883408809917292
1.6042985159457297
1.653475853694076
1.5056664809828464
2.228659500801369
2.3322404435783515
SCALARS beta float
LOOKUP_TABLE beta
2.985057219384144
1.1925090067640123
2.973924813834863
2.5837910983035792
0.5804731373494028
2.6408055404032265
1.029501099898963
2.3839935959797285
0.9818994415098199
2.1985102741882963
1.6322062969057267
0.5505757563356006
2.2100821090429212
2.7641547210793522
0.5560862956017513
1.293101724930659
2.254079756526843
2.8284374609137832
2.64062639401031
3.0276463508344857
0.3956271981441681
0.16306738403670376
2.1633866548239893
0.9415120529373605
2.5330370760658205
1.2672405135567375
0.24012604375421287
2.713595422209157
0.44854966938859314
1.4809886268603953
1.1409717800907335
1.7582115382825698
1.168020541783836
2.9778905621378295
2.735967614470616
2.832567430147513
2.240735321397302
2.5928048979585183
0.5919648633411612
1.8761517264401029
2.358704044348283
0.3080459148513889
1.5982187337802471
2.630509167454552
0.7164878500795716
1.3760075599671233
1.6807276179611603
0.4797625406874536
2.489685501977077
1.4598646105251651
0.29233965432676506
1.0209198653715905
1.9664877387370083
1.7196833875529325
1.0945232438483297
2.606655584227286
0.4015724907847021
2.7224723226690397
0.1162401214659853
1.2952719283390792
1.1208705786267912
3.0197849195917565
2.4654448964838056
2.089746596732347