# vtk DataFile Version 4.0 
Unicorn heart vtk output
ASCII
DATASET POLYDATA

POINTS 1000 float 
0.196997 0.252137 0.000147 
-0.260121 0.112192 -0.072705 
0.11197 0.088599 -0.039279 
0.127133 0.304662 -0.163214 
0.285559 0.220678 0.070828 
0.162858 0.318666 -0.092638 
-0.007972 -0.18334 0.031349 
0.001315 -0.171201 -0.000991 
0.168873 0.422279 -0.119519 
0.003467 -0.185388 -0.031836 
0.023736 0.090159 -0.001719 
-0.352907 0.155498 -0.066893 
0.147285 0.302179 -0.092695 
0.053425 0.025367 -0.087537 
-0.281813 0.12096 0.085012 
0.090095 0.183174 -0.00044 
0.058839 0.040905 -0.195765 
0.114419 0.000388 -0.07989 
0.071942 0.001011 -0.032888 
0.03775 0.178288 -0.18244 
-0.152993 0.084529 0.068663 
0.007219 0.162995 -0.09076 
0.006256 -0.041487 -0.104925 
0.238856 0.206243 0.001253 
0.3809 0.260465 -0.086287 
-0.162313 0.370972 -0.02027 
0.197512 0.220511 0.040378 
0.371011 0.291429 0.022373 
-0.108065 0.134448 0.087873 
-0.077143 0.298415 -0.061963 
-0.053408 0.291383 0.056708 
0.036852 0.25986 0.010164 
0.199879 0.301126 -0.178537 
0.240891 0.279068 -0.116221 
0.09376 0.013741 0.049996 
0.203011 0.171338 0.157379 
0.211467 0.286573 0.001532 
0.002635 0.091774 -0.118307 
-0.212337 0.31491 0.126569 
0.077622 0.192846 0.015602 
0.342677 0.119854 -0.003986 
0.166729 0.218119 0.116145 
-0.264901 0.248828 -0.022454 
0.034419 0.270889 0.188469 
0.082771 0.25586 0.086864 
0.182268 0.08049 0.046407 
0.244296 0.183574 0.007826 
-0.160578 0.110731 -0.044112 
0.389328 0.260729 0.084154 
0.149567 0.079424 0.008267 
0.073841 0.07917 0.045661 
-0.110225 0.360629 0.136601 
0.189887 0.254949 0.003854 
0.165973 0.188671 0.000255 
-0.044084 -0.116075 0.041404 
-0.005842 -0.056087 0.005669 
0.083497 0.279629 0.181798 
0.117986 -0.003827 -0.089455 
-0.1898 0.185628 -0.037736 
0.063314 0.344962 0.172923 
0.18109 0.342405 -0.042908 
0.166271 0.164744 -0.074281 
0.003487 -0.16571 -0.06658 
0.095561 0.271815 0.026427 
0.058104 0.043193 -0.18645 
0.274104 0.171373 0.066654 
0.164489 0.229179 -0.01252 
-0.21979 0.091351 0.190922 
-0.224859 0.26177 -0.002609 
-0.187395 0.254974 0.002168 
-0.205577 0.357928 -0.029159 
0.109352 0.119438 0.011792 
0.164858 0.455618 0.0858 
-0.128053 0.344696 -0.064178 
0.051362 0.004417 0.033839 
0.160189 0.0948 -0.182427 
-0.091604 0.008359 0.078606 
-0.023242 0.046745 0.106515 
-0.273407 0.195244 -0.025622 
-0.20488 0.300352 0.00018 
-0.21967 0.193494 0.222888 
0.182179 0.385047 -0.069521 
0.008796 -0.053913 0.015728 
-0.02305 0.080203 -0.180961 
-0.101976 0.293353 -0.068044 
-0.073901 0.055327 0.089849 
0.264223 0.290304 -0.09188 
-0.016034 -0.018959 -0.055662 
0.084651 -0.165435 0.117975 
-0.176713 0.407255 -0.108138 
-0.094371 0.048924 0.057886 
-0.314688 0.36441 0.061365 
-0.16348 0.165513 -9.6E-05 
0.246047 0.3137 0.072355 
-0.048009 -0.120185 -0.071589 
0.115172 0.176107 0.014203 
0.304045 0.05862 -0.004867 
-0.166759 0.372153 0.06903 
0.120061 0.144182 -0.047367 
-0.163077 0.152144 0.175734 
0.196928 0.252847 -0.000302 
-0.199386 0.25209 0.001759 
-0.212382 0.126434 -0.09483 
-0.027633 0.095298 0.031993 
0.190238 0.246241 0.173059 
0.007179 0.164164 -0.121866 
0.125849 0.262668 -0.024528 
0.085486 -0.064027 -0.137803 
-0.000732 -0.181034 -0.028534 
0.271447 0.279005 0.059989 
0.255199 0.224432 -0.012092 
-0.006993 -0.07528 -0.034573 
-0.134868 0.200168 -0.202193 
-0.06851 0.318712 0.027041 
0.238749 0.2117 0.031599 
-0.156048 -0.002864 -0.176701 
-0.128157 0.256312 0.087206 
0.291297 0.26985 0.041406 
0.174468 0.082367 0.008319 
0.170572 0.297947 0.009165 
0.166021 0.455955 0.08454 
-0.128389 0.345243 -0.06401 
0.160999 0.23424 -0.024279 
-0.2441 0.418333 0.06252 
0.246291 0.297811 0.098401 
-0.276502 0.205516 0.056028 
0.24235 0.124168 0.035234 
0.07258 0.110717 -0.041784 
-0.185016 -0.021932 0.165667 
0.186952 0.383595 -0.017079 
0.199506 0.322811 0.013294 
0.073282 0.330345 -0.16003 
0.221017 0.352787 -0.072237 
0.230781 0.174761 0.072601 
-0.140691 0.336765 0.099362 
-0.02676 0.097122 0.020262 
0.238103 0.465326 -0.05709 
-0.029612 0.194426 0.140363 
0.015151 0.19985 0.010057 
-0.168119 0.2837 -0.187928 
0.055803 0.199239 -0.115481 
-0.027921 0.120817 -0.089998 
-0.211899 0.311939 0.113464 
-0.175692 0.216884 0.02341 
-0.06249 0.051166 0.186811 
0.18646 0.368557 -0.055817 
-0.109675 0.226551 -0.049883 
-0.05233 0.317764 -0.150844 
0.09979 0.275639 0.044603 
0.189651 0.348252 -0.075811 
0.003487 -0.050475 -0.130452 
0.069801 0.114752 -0.011016 
-0.246625 0.142265 -0.16272 
0.232674 0.116681 -0.06935 
-0.000958 -0.075394 0.003904 
-0.020562 0.365922 -0.028515 
0.207863 0.282875 -0.002086 
0.241063 0.308282 0.054399 
-0.025485 -0.126189 -0.034236 
0.09659 0.187481 0.029334 
0.123389 0.120088 -0.193712 
0.273596 0.229424 -0.030046 
-0.26224 0.241659 0.014206 
0.216804 -0.036284 -0.066047 
0.109019 0.192531 -0.089458 
0.22232 0.135585 0.049171 
-0.267308 0.343322 -0.065068 
-0.157779 0.231053 0.009807 
0.323357 0.311669 -0.126904 
-0.090981 0.116804 -0.133871 
-0.135731 0.120403 -0.027502 
-0.024941 0.078304 -0.191844 
-0.055267 0.134362 0.106472 
-0.032784 0.190919 -0.098595 
-0.047534 0.024608 -0.129353 
0.223826 0.263473 0.006304 
0.352672 0.366542 -0.053413 
0.100146 0.340398 -0.060997 
-0.047847 0.169799 -0.063009 
-0.286868 0.309335 -0.130275 
0.094394 0.285146 -0.04411 
-0.098132 0.290517 -0.074662 
-0.288217 0.195947 0.042983 
0.142054 0.091285 0.009445 
0.088893 -0.164231 -0.127696 
0.059687 0.017747 -0.116345 
0.238786 0.220092 -0.044212 
-0.175307 0.278361 0.184659 
-0.251334 0.230404 -0.100723 
-0.248697 0.162015 0.073638 
-0.242078 0.386831 -0.079569 
0.094651 0.244261 -0.008413 
0.30901 0.074939 -0.113543 
0.185168 0.360177 0.090045 
0.14045 0.289124 0.030922 
0.207466 0.172094 -0.199066 
-0.295022 0.238791 -0.048553 
0.267629 0.180768 -0.033876 
-0.152304 0.261882 0.03808 
0.189449 0.36976 0.164789 
0.008406 -0.202367 0.037713 
0.04892 -0.138598 0.016429 
0.208142 -0.018545 0.026319 
-0.02353 0.020627 -0.014084 
-0.275087 0.206079 0.055969 
0.168967 0.023613 -0.050853 
0.022104 0.047625 -0.038501 
0.029523 -0.224103 0.089309 
-0.284489 0.237785 -0.088901 
0.000168 -0.154969 -0.015138 
0.145936 0.373768 -0.191974 
-0.009447 -0.208813 0.010773 
-0.191129 0.297429 -0.0023 
0.081236 0.137708 -0.125991 
-0.097793 0.273702 -0.025925 
-0.07508 -0.230119 -0.042241 
-0.100784 0.251456 0.111985 
-0.039785 0.106236 -0.042176 
-0.259075 0.041376 0.062641 
0.200828 0.306138 -0.011273 
-0.199804 0.251929 0.00157 
0.131672 0.321235 -0.117899 
-0.005666 -0.109976 0.023029 
-0.288381 0.179193 -0.145225 
-0.180432 0.380843 -0.04125 
-0.251483 0.209211 0.026706 
-0.225965 -0.022131 0.071913 
-0.052604 0.063059 0.109112 
-0.275802 0.221433 -0.031278 
-0.285496 0.282413 0.0287 
0.168488 0.247538 -0.035939 
0.116537 0.196417 -0.225208 
-0.254482 0.280378 -0.012143 
0.058503 0.242502 0.031169 
-0.045332 0.243224 0.174887 
-0.188183 0.14912 -0.01372 
-0.069947 -0.021407 -0.054896 
0.113963 0.26703 0.118265 
-0.109227 0.25577 -0.015324 
-0.271435 0.231396 0.166198 
0.159938 0.407018 -0.007205 
0.206678 0.165889 0.003295 
-0.264007 0.338809 0.144712 
-0.050693 -0.007088 -0.086924 
0.068589 0.062015 0.003457 
0.229273 0.132571 -0.103426 
0.173812 0.148364 0.010092 
-0.00594 0.135501 -0.224111 
-0.137064 0.053282 0.116984 
-0.19749 0.253099 -0.041386 
-0.36805 0.216985 0.084954 
-0.196346 0.34686 0.002035 
0.276396 0.212241 -0.039328 
0.187078 0.090131 -0.095347 
-0.051699 0.041239 -0.020182 
-0.006909 0.387704 -0.089485 
0.116928 0.223196 0.112264 
0.008393 -0.148113 0.044514 
0.304254 0.314002 -0.147833 
0.003893 0.058952 0.092539 
-0.106557 -0.002819 -0.048123 
0.222466 0.283011 0.123162 
-0.11985 0.160255 -0.053444 
-0.094459 0.414369 -0.065317 
0.212845 0.047001 0.091111 
-0.094828 0.104065 -0.067407 
0.220848 0.399431 0.159567 
0.206111 0.152528 -0.070037 
-0.146653 0.315505 -0.02062 
0.040589 0.216269 0.147398 
-0.14249 0.252307 0.020218 
0.084294 0.28458 0.19893 
-0.188419 0.235472 0.103287 
0.131278 0.265318 -0.018911 
0.308829 0.185998 0.123119 
-0.188484 0.294313 0.09887 
0.111522 0.013662 0.037087 
-0.239349 0.292232 -0.109999 
0.166528 0.249107 0.008385 
0.351281 0.114218 -0.006433 
0.108042 0.327445 -0.006762 
-0.087459 0.110113 -0.035984 
0.277638 0.044934 -0.021327 
0.056517 0.198426 -0.105428 
0.089332 0.279254 0.085277 
-0.242107 0.322902 -0.005939 
0.017836 -0.01677 -0.015508 
-0.334383 0.031755 0.010317 
-0.098478 -0.043943 0.073835 
-0.098724 0.262032 -0.030882 
-0.167079 -0.060802 -0.02155 
0.178057 0.333005 0.070014 
0.267404 0.171532 0.05771 
0.252869 0.179235 0.007711 
-0.182335 0.126165 -0.015615 
-0.129149 0.127747 -0.183269 
-0.038759 -0.111983 0.056443 
0.204068 0.281135 -0.000737 
0.240226 0.308645 -0.157673 
0.1149 0.128175 0.096713 
0.119792 0.307094 -0.007017 
-0.304602 0.241024 0.072862 
0.086798 0.198974 0.013896 
-0.249852 0.083476 0.139082 
-0.250653 0.35437 0.059715 
-0.061205 0.222809 -0.039076 
-0.16163 0.153621 0.165839 
0.181167 0.351135 0.048501 
0.188951 0.102957 -0.028506 
0.083243 0.331148 0.034046 
-0.050111 0.044738 -0.010189 
-0.014777 -0.130254 -0.190678 
-0.255906 0.283509 0.013334 
-0.23233 0.301943 0.020345 
-0.134504 -0.045608 -0.136954 
-0.253237 0.152087 -0.054395 
0.256632 0.238761 -0.072778 
-0.120576 0.234063 -0.139944 
-0.07418 0.159315 -0.057109 
-0.307945 0.064634 0.001199 
0.224487 0.152955 -0.018339 
0.04692 0.030487 -0.010548 
0.236054 0.313787 0.15584 
0.151814 0.346216 0.080113 
0.075848 0.226033 -0.096602 
-0.083884 -0.023755 0.015507 
0.039802 -0.004265 -0.002108 
-0.067648 0.371381 -0.140932 
0.266786 0.231752 0.020103 
0.241235 0.292866 -0.013434 
0.281239 0.386374 0.106795 
0.180019 0.35907 0.056273 
0.18089 0.263317 -0.086629 
-0.091085 0.305714 -0.127529 
0.156297 0.264282 0.005678 
-0.209517 0.304451 -0.18345 
-0.030069 0.044359 -0.124948 
-0.15992 0.259714 0.004332 
-0.090967 -0.067128 -0.177462 
0.004989 0.129463 0.097194 
0.204568 0.175315 0.086717 
-0.046824 0.318858 0.12977 
-0.023484 0.035715 0.035754 
0.380363 0.281074 -0.001258 
[...]
POINT_DATA 1000
SCALARS alpha float
LOOKUP_TABLE alpha
0.9901619740206645
2.2466825922105547
1.6629739519973972
1.230204091215203
1.5519057024451897
1.2962116652979976
2.214071600333083
2.139693750352038
0.9391285181287254
2.1605182529916633
2.355795291503417
2.355458938692009
1.4058590435541587
1.8149568589281604
2.0267229565146976
0.8612746428425009
1.6642744252264206
1.9211828978966208
1.9942422608091939
1.521684009216375
1.8406510237261386
1.4972454861419178
1.861564428799831
1.888032462381031
1.4627619748705754
0.7887912633009319
1.6109337189886868
1.1122567480516328
1.6735737255994665
0.8230947838883266
0.832018669663143
1.5869617900378656
1.4630261698500677
1.4463804592021599
1.881503394189505
1.576757976908174
0.7926871677521771
1.5891054709758174
1.298407252933923
0.8070102807858879
2.344617748107175
1.6413101452067593
1.447723128996948
1.2848203195861336
1.2971688189705288
2.0046515247864027
2.3545808329817506
2.00512163813757
1.6835057300941976
2.3561892937071103
1.7505057096964691
1.0213451882065478
2.287828606485141
2.354051815487321
2.2523512958812533
1.9308798984410267
1.2934072412493876
1.8756903338746485
1.6187353224205732
0.9730361736901019
0.891903900404959
1.5544235976010734
2.0178430476382445
1.9563499761223024
1.6753807517880595
2.0337621653899807
2.322028206194763
1.7072034625164574
0.850253373550246
1.4423043108051337
0.8054537155058284
1.6851832319886528
0.8203523932788199
0.8423069966447368
1.9853535746365856
1.8019656765011396
1.895880420362274
1.8366413695739767
2.35603352296918
1.2070722034627561
1.5994138192238923
0.9059264635280204
2.037993601932907
1.7487848971358664
0.9048278628704899
1.7452087746380405
1.3912738124461843
1.87224736577814
2.2551310029121474
0.7988809297458314
1.8267233343279894
0.90582341643152
2.348700292765273
1.3022749180341011
2.0424969593107374
0.7988086298215904
2.350062463283697
0.9300407457880794
1.6839687719711607
1.5708498303995366
1.2390591375108155
1.9223152260932677
1.7795320546565698
1.7632740664175626
1.4967377209699546
1.5373956594921905
0.9947980229152497
1.910940113605233
2.1103034166313646
1.3452803976252579
2.1981700109299993
1.9150872316250844
1.6028391632675953
0.8031039288337426
1.5959926373888234
2.118633529383234
1.4888978936960964
1.1572484277355057
2.3478890510970025
1.2817595498083578
0.7949842851852327
0.8432700178246264
0.7888764149445097
0.8275472898119678
1.3396219263071307
1.7058957018842609
2.2907541349101987
1.684710008649877
1.971380999018827
0.8102373842213847
0.9571288444336244
1.0649982707533938
1.1411176847088491
1.817109120114806
1.1375751386341133
1.6585556005664588
0.8167691148382367
1.5795218329281315
0.7866083644530995
1.464458867780991
1.5873044434607366
1.7147311373329388
1.357789247687284
1.5949361227418646
1.6739316143147502
0.9085555855949542
1.4948307749599727
1.0163891204638216
0.8151717517148152
1.1845774645277058
1.7323331639435005
2.3111783982461294
1.9013184438808772
1.9848676124551916
2.1998074321036505
0.786314137174386
0.8780760012997361
1.3398854718136117
2.257517093881986
2.2388559156169663
1.6082555418940487
1.9276415310397417
1.6039571673342128
2.2501638403855617
1.527475638284116
1.922791525561102
0.8971541590458391
0.8902166046390024
1.3247061426569469
1.7914506455775514
1.697575665056721
1.8482386094108159
1.7130066003021025
1.5152953343264755
1.705660579137975
1.3883983442585826
0.8989664975198891
0.862796370030439
1.525598238421387
1.3125495643560638
0.8146969330538585
1.1444648544245866
2.16112968652323
2.052079096403189
2.0975838118956887
1.840214547988299
1.565885192153119
1.4301069705008354
1.2992670142424048
1.7777916331378811
0.7924871387306663
1.1024302207574925
2.0227297921247533
0.9921325160366132
1.2292759867381549
1.6332039028604926
1.6413262469759122
2.030691252561845
1.3527091745532682
1.179945931373309
2.229843780971605
2.2266452942912696
2.3536370583736566
2.3561865847436088
1.7798133835256176
2.2122334168353155
1.8261744674298326
2.2020844591815125
1.6284803199133566
2.1712913580228816
1.2368152921895608
2.274117394225025
0.7925363147666541
1.660265560454064
2.0514262914766666
2.3531041371011523
1.3431515489388923
1.6808554704810246
2.2588405859987124
0.9295371992282858
2.0109182738965834
1.1926978851932535
2.0810592204143865
1.6676994557284186
0.791772979340018
1.7357571561060186
2.255406912290428
1.6055892760542048
2.2026381248433218
1.1115820211575174
0.8780038697525872
1.458416098051834
0.8300465036162352
1.1319385511875548
1.361681012663523
2.3192236534721147
1.9918584197487477
1.3732839329086004
1.3565504485546982
1.6841233808920701
0.7864252931483208
2.194333067043089
1.3129464579234047
1.8646034913197007
2.3534523150722064
1.7757729457265294
1.9991525527806862
1.3783453235752363
1.9168643188132468
1.5843699635574215
1.6897996929342118
0.7858248477020967
1.8611474789149731
1.7581775776880637
1.849938038398967
0.790889484494831
1.4884963957277488
2.2550750120100216
1.3841930896543366
1.6776583957869182
2.0300185808776425
1.2977568399441075
1.5315554089883652
0.8176151676666172
2.3560825822195435
1.7520708871220347
0.8812013416285115
1.6622374223731564
0.7880226301861833
1.2722777313771079
0.8534986275964472
1.3271854575409876
1.5007705975851366
2.2578316565801178
1.8172908315812113
1.389653073095978
2.1148358536571945
1.346196873173857
0.78551022354814
2.2456010889118843
0.7876528680296565
1.7153070629686162
2.234437875465454
1.453506371636316
1.2077537770350961
0.7882049025222557
2.151115731404207
2.255188763783665
2.024786711675768
1.2193049860595626
2.355206688640521
1.2706775906588332
2.0607460647286704
2.3464073326938926
2.036073024856408
1.715363420937478
2.082962756742427
0.788510338449419
1.376460192950082
1.6648678357261435
0.7875198769061968
1.4978895989504069
0.8486567295415244
1.831880452996887
1.0113385973426585
1.3087467815135339
1.7642066986960558
0.9658674307886477
2.0609249042671522
0.7892530757652985
1.8661223377414673
2.0615570335046636
0.9001051507241288
1.2715880206262662
2.127988046413388
1.9491639855515206
1.5787885957327168
1.482348550130103
1.4523800106262
2.350710406419682
2.275847271184676
2.2433374977042595
1.2722908743659118
1.007165722593262
1.4236110608506538
2.3344625708719056
1.9171293888193857
0.8588115155726743
2.2831834516637137
1.2327962344635286
0.9159415048296718
0.9221947405679423
1.3899310942204046
1.0824940975336446
0.9506667802307476
1.3294895456417735
1.7092218690574768
0.7886743052687629
2.180468628855729
1.6164663266506092
1.6239688900907898
1.0499688849007054
1.681574604553129
1.2383489521241662
2.3428626649552897
1.6206687314354744
1.2557621299204471
1.7883812462995068
1.7512951104367784
1.095377201776941
1.1730995820132322
1.1790597085451264
1.8086102032221714
1.9615832614062227
2.2958459129985513
2.2358778125337615
1.671365698056923
2.1080375338552626
1.4584549541433658
2.343262671386453
1.6579927277081434
1.6202868455498218
1.641767787900364
1.454156558717777
1.2754735021481258
1.240311457228941
0.7896301653502747
1.8384343928548788
1.8951224425658815
1.7894900550899613
2.353251244940766
1.3611160673538776
2.019140850140045
1.3736406504506213
1.1565188337308423
1.0879605663907428
2.0869390633404534
1.7117950560192756
1.683146483533734
0.790374284151088
1.0603810107884784
0.9062594133367768
0.8877713024497471
2.0587514683428965
1.599651635451051
0.7988533732261607
2.0950378700019727
1.4543046150671328
2.200046428939608
2.118226264194869
1.7869687889642862
2.2097032082878845
1.1143826717282643
2.1765521178096146
1.6488666479601592
2.1830575472203053
1.339497654856979
1.2265844983467324
1.9350586493789548
2.275121651546624
1.4507625941680677
0.8054263225543059
1.5972971795347115
1.6058524768486515
1.537353679044501
1.2089331509553025
1.9647850824272899
1.2810544525046013
1.9508120976916163
1.9495573191144027
2.02380035991435
1.5528419507159932
0.8403904038353558
2.2052959726763657
1.8926156840304293
1.8838172670317956
0.8812181745162808
1.7879560098473493
0.918161199103296
0.9260789593570639
0.9057600938700612
1.8111937263841995
0.7861542275517107
1.7087452121277715
1.381178475458886
1.0460829920464825
1.117824834338825
1.9318259395778767
1.4989962492046922
0.9521258779238452
1.274181620099152
2.0260967199099302
1.8216489121751405
2.2654215674457863
2.3516256797082136
1.9441118839501734
2.3421881627557473
1.965646853862157
1.6455189510402775
1.543423501801924
1.6622860518679254
2.0625244574225885
0.9324718821972663
1.6660824434916484
1.8517088278161884
1.9836766854451728
0.9829244478706014
1.4433961708501082
1.9267215920525669
0.895663296212127
0.8312389984355955
1.8808624734728538
1.1482308831392642
1.1744399778793893
2.3317264309556744
2.3548151023726027
2.213507416973818
1.3921820133382738
0.8644313563867501
2.307942821472235
1.5738287486271656
0.785398576831651
1.7377409027202335
0.9938537426749217
2.0546890709380854
1.0225622281926376
2.3323473492677826
2.1985642941273045
2.353694453682689
1.924892669366831
2.3266304570632985
0.8036762717648647
1.2652652308098218
2.350318881169006
2.120502144975391
2.3514552078086965
0.909963037763222
2.2774318843085575
1.0408117769630023
1.0454021012590797
0.8816743938611978
1.4476639679504002
1.7005951378981574
1.7404891800727815
1.3905520806831702
2.354434473806507
1.31204735230863
2.33986642786886
1.0703099042668784
0.8584708034610059
2.166379270269324
1.85497816035293
1.9648167235555805
2.355668620975555
1.832409619028664
0.791979318889596
2.3520937546505207
2.2471749311881104
1.0423327839497891
2.210563936191586
0.835770011053754
0.8020751194489795
0.8444633072113693
2.26855807460411
2.0217735695639454
1.3728291077124648
2.2320510077617772
1.920489634522279
1.653876116637201
0.7913938631356081
1.6573726005093925
1.1280071865111854
1.7919911034351208
1.6234575122008965
2.0645348457938564
2.278412021831207
0.8039659241227811
0.8820304380865492
2.031285743355507
0.8003788993318723
1.8784285967886292
0.8012740928896764
0.793148668931059
1.6203857583537866
1.301808955348447
2.1996228049815016
1.741554409361675
2.0189231943440293
2.1335797564691616
1.2287233992040587
2.3558132702260846
1.4474563193872922
2.3156681372959156
1.6814069569255774
2.1754832711364496
1.038333684281316
1.2195063474729055
0.8672379346926128
1.9094576966610062
1.0923705818455949
2.1727347278718128
1.995574187089382
1.425665125135026
2.2375393297192114
2.0323543280125564
1.7553160614497678
2.3293524385919633
1.8921267440443406
1.4818522654055433
0.9534557855782825
0.7870601418605865
2.029427670352509
1.6018472980310834
0.7856912026408013
1.5260735928275042
1.9273618156642642
2.0671299284555613
2.068679656677525
1.455681467056228
2.2487969045034415
1.5046748267658325
1.4738816457947057
1.7369238396644109
2.1789787780009586
1.0093359619759639
2.0725038664685083
1.9325538948921615
1.7125952178704624
2.161426710947894
1.5949119744872082
1.7342522441394477
2.3559815016189027
1.5922240768573512
0.9605936580253555
0.8563417906865848
1.0938234657458215
2.1351293047356297
1.8298994492793295
0.7905253731738733
0.8102694317362561
1.1136654850099907
2.225599989810994
2.2531224435413426
1.6169276729528361
2.2859620835547627
1.8637463607082532
1.4183812751290465
2.28826234894011
1.5254665294500986
1.5162166731547513
1.544775433569335
1.775789212663654
1.9232648291241021
2.293174106612518
1.4121612738487663
2.1896798245069804
1.6066412173473796
1.5351014232419624
0.7866564075129536
1.5904238881218387
1.1403637973351768
1.9466565003915237
1.491235443320174
1.59075453626267
0.7853981640763658
2.310514599591188
1.6899367887750512
2.0724396468646713
1.7709450325001928
1.5437276514486526
2.3139424717396517
1.0879848158771084
1.6601410501953147
1.9438880221277606
1.8995140940887145
0.8092912940875038
2.09531800864425
1.2618610430628288
2.352271703122858
1.0484080925912198
1.9267010805672993
0.8040772224676076
2.1890388213196332
1.1707975094830279
2.3112839939914958
2.2701979417651095
1.5542578429473075
2.2707387619000516
2.243508537396517
1.7871614583633264
1.3070704718674815
1.6847869056404847
2.2456750051284167
1.493431119290338
0.8627669074486466
1.2579808425563996
1.3435249959421065
0.894491082851838
1.3896305826347308
0.7866905215834501
1.1912356227837642
2.031252009112452
1.7748992859879296
2.1107021694104695
1.7837613566726358
0.8162288464304491
1.8140672600406824
1.4666714026761718
1.4468542581575576
1.679849318221385
1.615946310993857
1.586632585511449
1.2714634097812816
1.0671192212387695
0.7863234029528461
2.3483203049314616
2.0301578356386525
0.7854123063376045
1.2238840240937783
2.1124048810831195
1.8161140308877934
0.798092593615992
1.8626765783227932
1.6329938298423317
2.2362614950962647
2.2556631103088476
1.8947032888083286
1.599906685929251
0.8551513621694217
2.1521288576710553
1.607579254418153
0.8165397269402017
2.226345126420815
1.8097014768844868
1.167090621690401
0.8804572059102744
2.181050617204174
2.354083963546016
1.7759673538988912
2.0289100242265765
2.348418425834868
0.9947738667209179
1.4360925908694098
1.6174220294911146
0.8069259326035313
2.3561914666196753
2.173569418020167
1.6627150401380533
1.2771623745219127
1.6124035243540533
1.5062366114203924
1.5276757617911865
1.4751220149930062
2.002471884738597
0.7854048894960133
1.632724023885346
2.3487998986057295
2.181339526204105
1.2838594103063379
2.258986797525356
1.06975468880032
1.795109656883103
2.255300355237924
1.676551162910307
1.1322937932972386
1.0409550430286936
1.1838066055523013
1.8981268702370293
2.1370470124542975
1.8842303909109397
1.4618662117975654
1.487199646163098
1.9602630783656447
2.077336473571263
1.5008933184653732
1.4339463537965986
1.7615502283415345
1.4644641297974736
1.3616792700442333
1.2282136159488664
2.2348240829928576
2.2919606235124683
0.9154789307022522
1.4333285703229213
2.3477463959603733
1.9294604057720803
2.137038251409778
1.544845788647731
1.3455402699375918
1.8082428297267064
2.322592906182423
1.8633975994124763
1.2296676978389804
1.3712752660876764
0.8496004211131721
1.402319868252613
1.8633353400179964
1.694576265682421
1.8139791553872664
2.2568463378621764
0.8509025008035005
1.3809833742192115
1.4926932613937367
2.331554682946345
1.1756053047080568
1.1427647256516833
1.5739232148406164
1.9564305834590283
1.0087878125185283
2.0481821706917938
2.2185807496258687
0.7854364528102633
1.26423352005983
1.320630088131781
2.2942336176016207
0.7863734497332614
1.7193195460656907
1.078383950162115
1.2899461280471314
1.7272505458846297
1.8037734608408458
1.5867962126428166
1.5705082349557644
2.077868736363177
1.4911711044344325
0.8630547109202339
2.26724238578246
1.746785806350841
2.3561071614963547
2.0262251905087245
0.9767282467120031
1.3564376159332971
1.6963608461901105
1.718495560930378
1.5503463190977476
2.0432280111635754
2.1313774918355715
0.8933571863870254
0.9776083929035995
0.9187572468760707
0.8549284340043815
0.9769780942620683
2.1740460273493962
2.188918668977262
1.796559077476419
1.726814892871535
2.3072242685946374
1.12467202089722
1.8507172021856284
1.9515899583179732
1.481413469335248
1.672727012305157
1.1489405469545002
1.315005519085752
1.7214528020654007
1.2108943452204723
1.2130254716890125
2.355853708887858
1.795655682136782
1.8519874361752549
0.9916429074712684
1.982236631217124
0.8580833335206702
1.9712928154859828
1.3924813746523772
1.5016564269336128
1.051654867174253
2.005977441886913
1.6083686728120432
1.2571861957634856
0.879480722714719
0.8834250904072835
0.8333257086232786
1.2249532757540156
1.7968109976160882
2.284750212620081
2.193415913775899
2.026000476659525
1.6920188800325138
1.7250063874606962
1.34999777811248
2.2243028425820532
2.2416242311770502
1.1754281780649611
2.053968158655691
1.3245824401912465
1.570749059594909
2.2449476641667805
1.0364678133000875
1.407113247875405
1.9988666642579316
2.016782240613156
1.9601016684072181
1.8836063184594038
1.1320814665046985
1.9198662333352277
1.6623635265578125
1.6431538780622894
2.3546025715898944
1.3504039571059516
1.8706127789393732
1.8373359404060023
1.4268233162511532
1.0384561763052669
1.2422740009525217
1.5552940333450864
1.040771593011713
2.3561810364991134
2.313482845942584
2.0278457855072882
2.3513228612680397
1.4384110191725967
1.3282601316816829
1.3871785403579944
1.8008169517865342
1.604559323787275
1.5405646989149309
1.139940650440002
1.6575850902769078
1.1093467353794981
2.188673795649925
1.1584251973131694
2.235287310089876
2.228914597954652
1.3679568078704916
0.8008191258671715
0.7994546736687371
1.4960775734331335
1.782885287572397
0.7854060553037648
0.7856072910857969
2.279360081008296
1.6610173976371012
0.7864496187949656
2.172938841698832
1.524947929064437
1.361226396887132
2.0424582329293175
1.8386947524976471
0.78656634470863
2.314615887748333
0.9090878329848793
0.8830880620926294
0.8489003932712629
0.8651601230980326
1.477184823322614
2.1301550726693836
2.307424477665085
1.3705040163181674
1.6219934531438793
2.327257511791085
1.5725692562590146
1.4816233240936698
1.29044577438262
0.7854004426133004
1.1296204164480557
0.8164387103700687
0.8375791055527849
2.258461784063006
1.610780205182804
2.0822247787017965
0.8823059811555923
1.9800425251544542
1.4227143360577579
1.4882900504223537
2.221494668573504
0.9580050998393076
1.5392423922294265
1.032298108932381
1.416520967882608
1.1580144131234609
1.63465034329515
2.3559673359978395
2.238583513309578
1.3935523397679928
1.28689655924561
1.4763614387424422
1.7219796999232302
1.2901901157516826
2.0389133615720705
1.6567416724899622
1.5497183618127264
1.0633216044204432
0.7951632645508042
1.4694551628736945
1.3390365487375715
1.7462011912638786
1.7477249936755908
2.290799566166123
2.280405562747377
1.151180347933298
1.606144364514017
1.1960487309242729
1.7992087856289163
1.2067907255109513
1.1444573258532875
0.8813840102743716
1.3823892795167083
1.822208873401093
1.6931137303851147
1.060969333117037
0.803448622684553
1.9541123613760123
1.3252351535746911
1.570080103020801
0.8403929005117523
2.32484617043727
1.42293672374761
1.6339348588622353
1.9770133686968652
0.7855802037976739
1.6516990419165722
1.6911112044241394
2.013204276160856
1.110937683451585
1.5271581968693448
1.2737878877671653
0.8023492515163777
2.355267278283729
1.7347850578266735
1.892700282225458
1.6169309397832778
2.0725305611999887
1.300975895770361
0.9081218585847195
2.022472844304308
1.862718983986838
1.784989931905138
2.3238224299573376
2.115570111310905
1.428054846175935
0.7872946056665641
1.5686001310676598
0.9277391258596863
1.7119614316603764
2.3400381771712637
0.91139746337638
1.9642794469693556
1.2741901711748869
1.6680607309603988
2.0440548161408687
1.41159892533207
1.0280727444425926
2.273048031352051
1.3400359581740415
1.0468248620637548
1.0177851137759413
2.2112540513490937
1.822292298067238
0.9047065172640292
1.500715981368123
2.355644722424967
1.650255986684643
2.3219841108072186
0.8023205704530062
1.5330438888710816
1.5973205842893754
1.7795155059212726
1.9586081560058233
0.7853982518882537
SCALARS beta float
LOOKUP_TABLE beta
1.797637795509781
2.129657202645186
3.008733791664621
2.7793165492375547
0.1029729095746931
2.7949646266346613
1.0224876978058757
2.4090704107724394
2.299755434355149
2.39948276120923
1.5977102637832985
1.5400556402386
2.9446013100421258
2.888989549790067
0.5319863362888455
1.0619066861539188
3.0468198349088285
2.7022309991029987
2.669447437130294
3.0922327640970675
0.38141152792406136
3.0387439860491017
2.8278648455521034
0.43381148654565477
2.685931722372882
1.4757220351930485
0.23198657807044018
2.014804207401357
0.10672010830377401
1.9239161111456187
1.1599544872406977
1.7213942281417574
3.0172115448492827
2.9247402052628613
0.360703858049055
0.24959735500975
1.4392658869966461
2.8160786039331076
0.2884049445103122
1.7186362508677302
1.6807105733235108
0.2173454338602621
2.671566871063218
0.30475141748663126
0.28513484409666723
0.7347346183412132
1.529916110202455
2.6410038539862044
1.4002945983605992
1.5678760654659754
0.23905759387188136
0.7070600298018601
1.4588942120305644
1.5157366621173536
1.0500788858209769
2.7317030274639906
0.2939107698328839
2.817461329489261
2.9909626061373675
0.7613474424093354
2.074330911556563
3.039773338977383
2.6358549257691406