# vtk DataFile Version 4.0 
Unicorn heart vtk output
ASCII
DATASET POLYDATA

POINTS 1000 float 
0.23731 0.256488 -0.020923 
-0.263501 0.107306 -0.076599 
0.109135 0.090018 -0.028471 
0.120873 0.319792 -0.202084 
0.283307 0.221382 0.063339 
0.165886 0.312582 -0.070877 
-0.040859 -0.214524 0.058806 
-0.004696 -0.185568 -0.017156 
0.163224 0.437703 -0.132393 
0.002067 -0.250339 -0.079617 
0.007066 0.075589 -0.001528 
-0.363415 0.14714 -0.066234 
0.142972 0.30793 -0.124971 
0.055344 0.019943 -0.109082 
-0.28024 0.132481 0.068026 
0.080593 0.207748 0.014679 
0.044478 0.038451 -0.234226 
0.121049 -0.012549 -0.109 
0.075961 -0.015529 -0.063907 
0.029302 0.18663 -0.242729 
-0.159482 0.072693 0.117066 
0.002014 0.165667 -0.149095 
-0.00564 -0.057073 -0.153453 
0.246938 0.195958 0.027872 
0.385483 0.261489 -0.093671 
-0.150757 0.388825 -0.020404 
0.196138 0.213557 0.077908 
0.38251 0.294868 0.016375 
-0.103155 0.130002 0.132885 
-0.080425 0.290439 -0.058805 
-0.04403 0.319849 0.070503 
0.140252 0.261187 -0.014258 
0.197338 0.302969 -0.194128 
0.227083 0.286649 -0.170485 
0.09249 0.01625 0.04384 
0.211708 0.166774 0.186476 
0.226822 0.305322 0.002515 
0.004819 0.091881 -0.109165 
-0.199933 0.327032 0.178952 
0.115826 0.213481 0.009509 
0.374443 0.094003 -0.017821 
0.170286 0.213532 0.153637 
-0.269758 0.251733 -0.040954 
0.039266 0.279827 0.214337 
0.085857 0.26974 0.125798 
0.199502 0.063164 0.06984 
0.280397 0.139826 -0.010043 
-0.159752 0.115021 -0.036262 
0.399906 0.262483 0.082438 
0.19802 0.036826 0.004977 
0.075247 0.07489 0.078437 
-0.073913 0.412427 0.182661 
0.235673 0.243944 0.000634 
0.194186 0.14844 -0.002188 
-0.060994 -0.138493 0.057597 
-0.014806 -0.077198 -0.043566 
0.08467 0.293533 0.22035 
0.122758 -0.019777 -0.137744 
-0.190736 0.182965 -0.078701 
0.06435 0.339149 0.164695 
0.12878 0.395934 -0.081405 
0.165905 0.165907 -0.122795 
0.00632 -0.183253 -0.096851 
0.139551 0.253809 0.001487 
0.047357 0.028562 -0.240131 
0.294372 0.155613 0.097426 
0.188805 0.207441 -0.010849 
-0.21645 0.090531 0.198586 
-0.21649 0.259115 -0.000529 
-0.214503 0.258278 0.015027 
-0.20849 0.392124 -0.037755 
0.113456 0.115258 0.038169 
0.168702 0.445948 0.081446 
-0.099907 0.376425 -0.074472 
0.062192 -0.035502 0.089702 
0.143631 0.082046 -0.221929 
-0.091761 -0.006589 0.128284 
-0.023042 0.037856 0.150429 
-0.290711 0.179055 -0.022936 
-0.198432 0.326966 -0.051956 
-0.223533 0.194489 0.214842 
0.184442 0.376907 -0.062728 
0.015501 -0.08872 0.064814 
-0.031718 0.072784 -0.216459 
-0.088966 0.31734 -0.082941 
-0.074841 0.053794 0.100253 
0.257581 0.305678 -0.161281 
-0.016508 -0.021268 -0.064839 
0.09492 -0.182096 0.128415 
-0.183265 0.389288 -0.098097 
-0.089129 0.058101 0.025445 
-0.326222 0.397748 0.095999 
-0.195589 0.144239 0.006089 
0.243254 0.321042 0.095289 
-0.043685 -0.114415 -0.062798 
0.132662 0.198926 0.007742 
0.324246 0.01482 -0.017421 
-0.143644 0.402197 0.095177 
0.118539 0.144722 -0.035488 
-0.154314 0.151506 0.209418 
0.229759 0.256277 -0.018506 
-0.245482 0.2411 0.040036 
-0.224808 0.110799 -0.126434 
-0.033653 0.08572 0.089527 
0.20278 0.244082 0.20042 
0.00373 0.167357 -0.15336 
0.110052 0.297096 -0.065987 
0.068709 -0.096808 -0.215126 
-0.004757 -0.210687 -0.062801 
0.274317 0.280906 0.067152 
0.290993 0.190613 -0.056679 
-0.009858 -0.08318 -0.053338 
-0.140541 0.197336 -0.223271 
-0.059458 0.336579 0.031283 
0.239789 0.212041 0.047868 
-0.158109 -0.006317 -0.181703 
-0.128776 0.257946 0.120188 
0.273855 0.265847 0.024222 
0.197622 0.053326 0.006343 
0.172631 0.309486 0.046693 
0.155774 0.48118 0.088352 
-0.090374 0.402234 -0.085589 
0.177672 0.279986 -0.018184 
-0.244882 0.471211 0.095898 
0.246965 0.295877 0.085115 
-0.264065 0.198824 0.153614 
0.258524 0.106395 0.041707 
0.073269 0.109612 -0.053215 
-0.183704 -0.017694 0.156947 
0.168964 0.421826 -0.028343 
0.196404 0.316489 0.005457 
0.052435 0.352625 -0.198713 
0.209265 0.373339 -0.110573 
0.232868 0.17319 0.080849 
-0.117444 0.362994 0.163011 
-0.027258 0.095536 0.052097 
0.234853 0.493347 -0.068697 
-0.027305 0.195898 0.171733 
0.018003 0.185079 0.010479 
-0.171474 0.285481 -0.201101 
0.054928 0.199046 -0.133144 
-0.03409 0.113172 -0.147526 
-0.211051 0.309546 0.103132 
-0.176097 0.217286 0.056492 
-0.055618 0.04092 0.233768 
0.182281 0.386047 -0.071179 
-0.114298 0.228548 -0.085867 
-0.051366 0.322819 -0.159139 
0.074778 0.321066 0.052938 
0.188824 0.344241 -0.067083 
-0.004089 -0.05356 -0.153167 
0.063041 0.121398 -0.014147 
-0.243928 0.144075 -0.154708 
0.236146 0.11243 -0.078303 
0.016553 -0.096825 -0.014391 
-0.005597 0.427142 -0.027898 
0.223299 0.313101 -0.018159 
0.239345 0.323147 0.097636 
-0.065869 -0.179569 -0.05721 
0.136452 0.148438 -0.011425 
0.111029 0.122077 -0.231636 
0.286152 0.225757 -0.041432 
-0.270429 0.240875 0.039348 
0.231269 -0.057657 -0.082912 
0.110637 0.193567 -0.110154 
0.229584 0.129231 0.063543 
-0.271838 0.353054 -0.072854 
-0.123076 0.271456 0.042605 
0.277988 0.32373 -0.21557 
-0.09623 0.112613 -0.154322 
-0.140986 0.112914 -0.066731 
-0.035758 0.070073 -0.21945 
-0.055525 0.132651 0.11684 
-0.039464 0.192091 -0.125384 
-0.045805 0.027098 -0.118626 
0.226904 0.271762 0.039586 
0.360477 0.395669 -0.082231 
0.080298 0.363631 -0.072688 
-0.046846 0.174988 -0.100048 
-0.296649 0.320887 -0.154819 
0.06485 0.331204 -0.060875 
-0.070184 0.335732 -0.138445 
-0.308818 0.179945 0.062779 
0.137519 0.095674 0.001328 
0.082984 -0.153964 -0.114087 
0.059651 0.009234 -0.149437 
0.237087 0.220052 -0.076846 
-0.167102 0.283907 0.222326 
-0.251048 0.23023 -0.094983 
-0.247568 0.152496 0.125211 
-0.237664 0.373494 -0.073413 
0.08727 0.26054 -0.035051 
0.299488 0.051235 -0.155697 
0.1814 0.369892 0.10202 
0.13659 0.314954 0.074604 
0.20027 0.170515 -0.216025 
-0.291428 0.239783 -0.044177 
0.282585 0.174264 -0.045291 
-0.151292 0.269382 0.07284 
0.194423 0.378362 0.185611 
0.004141 -0.194961 0.030679 
0.042566 -0.145985 0.010414 
0.237095 -0.052227 0.018697 
-0.066714 -0.028206 -0.009193 
-0.276827 0.198891 0.087109 
0.17352 0.017046 -0.056935 
0.023999 0.042005 -0.059988 
0.054515 -0.268252 0.119998 
-0.291103 0.235623 -0.102975 
-0.010422 -0.190249 -0.050052 
0.149565 0.370725 -0.185102 
0.00271 -0.237272 0.029738 
-0.199281 0.335918 -0.004485 
0.076153 0.134479 -0.163275 
-0.087772 0.275718 -0.029468 
-0.062211 -0.216561 -0.042107 
-0.057752 0.267002 0.183654 
-0.042047 0.103772 -0.071946 
-0.284514 0.004609 0.094227 
0.203235 0.313686 -0.017331 
-0.241444 0.242607 0.027143 
0.109029 0.340948 -0.160858 
0.005639 -0.135772 -0.01807 
-0.294832 0.171363 -0.176517 
-0.15259 0.429178 -0.04752 
-0.244771 0.194692 0.108247 
-0.227812 -0.061447 0.100319 
-0.05431 0.06103 0.134708 
-0.290334 0.215383 -0.039929 
-0.307596 0.302622 0.066576 
0.18208 0.271972 -0.016605 
0.10673 0.197543 -0.240259 
-0.285357 0.334495 0.007566 
0.054948 0.267127 0.086119 
-0.005124 0.271865 0.233689 
-0.199772 0.137247 -0.01817 
-0.082568 -0.043291 -0.096287 
0.11648 0.27309 0.145611 
-0.108255 0.263386 -0.049571 
-0.269394 0.231639 0.154865 
0.176267 0.376484 -0.004589 
0.21839 0.139807 0.019621 
-0.254977 0.355894 0.197336 
-0.048229 -0.003826 -0.076524 
0.10663 0.026179 0.001179 
0.218558 0.120997 -0.165722 
0.188813 0.128678 -0.027986 
-0.004554 0.134562 -0.216984 
-0.127557 0.025681 0.176665 
-0.196332 0.250308 -0.068657 
-0.370956 0.216239 0.091195 
-0.166303 0.395603 0.007911 
0.270187 0.214518 -0.030165 
0.191269 0.081792 -0.141079 
-0.053079 0.029135 -0.073722 
-0.014905 0.411917 -0.09394 
0.118125 0.225498 0.132429 
-2.4E-05 -0.191117 0.011664 
0.303714 0.318529 -0.169048 
0.018165 0.051159 0.143655 
-0.120242 -0.028443 -0.079733 
0.219936 0.281394 0.11446 
-0.117389 0.160148 -0.036007 
-0.09765 0.410435 -0.066503 
0.212787 0.049747 0.089056 
-0.098768 0.100468 -0.085605 
0.221471 0.394469 0.153664 
0.188646 0.140927 -0.143855 
-0.11148 0.361644 -0.021296 
0.047272 0.227712 0.177332 
-0.135379 0.25964 0.0236 
0.087457 0.288963 0.216034 
-0.189271 0.237549 0.125732 
0.176483 0.245704 -0.008094 
0.315213 0.181553 0.13677 
-0.175305 0.300932 0.137517 
0.13435 -0.017501 0.06773 
-0.236817 0.290348 -0.099966 
0.152961 0.26615 0.007958 
0.358556 0.109484 -0.009568 
0.080529 0.371411 -0.015698 
-0.094808 0.081193 -0.11579 
0.296311 0.023129 -0.035617 
0.051038 0.202602 -0.143028 
0.086765 0.282745 0.093767 
-0.254938 0.354131 -0.001582 
0.032778 -0.037783 0.011143 
-0.326808 0.045953 0.004198 
-0.107157 -0.066727 0.115014 
-0.09339 0.281558 -0.079889 
-0.201513 -0.133372 -0.006863 
0.180239 0.343146 0.096763 
0.263193 0.175217 0.05041 
0.260387 0.174815 0.007489 
-0.177239 0.134047 -0.001327 
-0.13123 0.12241 -0.226152 
-0.045016 -0.122698 0.072107 
0.189617 0.315242 -0.005505 
0.220963 0.317533 -0.20072 
0.121363 0.12707 0.135639 
0.107243 0.328353 -0.008582 
-0.312652 0.247531 0.133014 
0.123049 0.218654 -0.001141 
-0.247681 0.071884 0.205705 
-0.244264 0.340561 0.044594 
-0.061402 0.225783 -0.049261 
-0.161907 0.148158 0.196696 
0.176349 0.373811 0.067428 
0.206066 0.074891 -0.072562 
0.064084 0.36421 0.039214 
-0.052432 0.041351 -0.020128 
-0.012602 -0.127562 -0.185457 
-0.272755 0.332717 0.069891 
-0.236681 0.308076 0.039513 
-0.149295 -0.069822 -0.159463 
-0.267721 0.139621 -0.078657 
0.256904 0.237763 -0.110169 
-0.120761 0.234745 -0.153368 
-0.072217 0.158598 -0.049223 
-0.327172 0.044192 0.005112 
0.254231 0.121074 -0.03732 
0.103248 -0.026192 0.018949 
0.237132 0.315618 0.163473 
0.147153 0.356726 0.093783 
0.075583 0.224667 -0.085359 
-0.075433 -0.016017 0.013592 
0.052991 -0.022287 0.043723 
-0.063874 0.382491 -0.148916 
0.273096 0.230526 0.02135 
0.232345 0.314586 -0.106866 
0.284448 0.391987 0.111808 
0.160117 0.394663 0.084884 
0.18149 0.26645 -0.109172 
-0.09043 0.320372 -0.148968 
0.152109 0.271005 0.012873 
-0.213013 0.318971 -0.199051 
-0.033414 0.041143 -0.143111 
-0.107702 0.324635 0.024271 
-0.081111 -0.054411 -0.154599 
0.013271 0.127565 0.15276 
0.206727 0.173612 0.112919 
-0.025551 0.338577 0.1544 
-0.023094 0.037655 0.025642 
[...]
POINT_DATA 1000
SCALARS alpha float
LOOKUP_TABLE alpha
1.5111017810215839
2.2665464222498937
1.6669492958466827
1.2593747817863354
1.6272525748722215
1.3643522212818264
2.1945812491958523
2.106794880903388
2.163260786735855
0.8682684497258247
2.3542296395633806
2.301800278492924
1.4653428289501467
1.7985293579261092
2.0749625035539765
0.8870883439911736
1.522629419161989
1.9810567997317332
1.9577925231737394
1.3794738789416352
1.863204605581248
1.6879905202581373
1.8854485237733827
2.1340866681946453
1.4915657997434542
0.7944150026513105
1.8246403555201243
1.069577435306586
1.639416584464289
0.8269277924043391
0.8170724019842577
1.6484073140010693
1.4829988374031646
1.3612853564105294
1.9308469536073283
2.3557680188888734
0.802488060659382
1.5964292714522972
1.259338735623443
0.8178697997439925
2.019907967889396
2.279376630124019
1.310812074994139
1.2157497790612073
1.1978548144412269
2.3411881955564593
0.8399858490880844
2.0068811010424183
1.2136384626066625
2.3384225150174833
1.7162720155224946
0.8724255988092123
1.989795736883431
2.2723950610363657
2.2572213668523786
1.9866564099845896
1.178690604913174
1.8175470462996068
1.7096823732104356
0.995930027554042
0.8752167068787304
1.538474497299816
2.12002897535226
2.1635231121713554
2.055005405888478
2.1927717771894115
2.237714423239454
1.7949824693152956
0.8334995343017533
1.2107627893649278
0.785452892555056
1.817090927386121
0.8282853251407897
0.7865252288101934
2.2078061123624737
1.9058071855975336
1.8177308407038117
1.7480101404106236
2.252671851644275
0.9272748684014359
1.6525402489226337
0.9106564876901514
2.083008327546139
1.946437847211576
0.7915534740013997
1.78891524963398
1.3063349494667715
1.9317788585271485
2.342499272471304
0.8702122344056078
1.8263382559160666
1.0533508457280187
2.2743526570502985
1.058566071319327
2.0494190300593815
0.8036754855584609
2.324261093208021
0.9010756989571114
1.5516444324490972
1.4992899601476286
1.4885015277807279
1.819958765725193
2.3047807902795303
1.668980928970287
1.4011351178596503
1.2990238782772257
1.0345640781951502
2.173171084502185
2.1880241314165727
1.2693020465337483
2.0031633386506815
2.000383990260636
2.1557344138380374
0.8083020989184223
1.519514556823015
2.1211008380487972
1.5033587016810086
1.4277051914840708
2.3287849979822917
1.2318374665402032
1.9346155479179332
0.7911993147156137
0.7888988288081326
0.8979323026261787
1.3814130028323484
1.4919389136085501
2.356100048570436
1.7171126457304875
1.9627959356212918
0.8395787703883906
0.991095164887329
1.1038254770963656
1.1735366307054116
2.0801573308596457
1.247699458758187
1.6477879288030484
0.845823643198323
1.4086776328156454
0.785406478637742
1.7337396348098892
1.5882880566192465
1.8186838857441034
1.342786462239399
1.4949158816280579
2.1501857103547652
0.9441319410108795
1.50226733244225
0.9846018533173677
0.785657777393427
1.1556200165399717
1.680225225584676
2.309880370518157
1.8965091431296994
1.94790084252837
2.2204729420317895
0.7878583700911478
0.9647915423532045
1.0078687320991566
2.3473603462650825
2.1898226568227654
1.4339836974685352
1.8149605867525662
1.607124510085293
2.184843036798905
1.4956285529439446
2.0870174200934324
0.8260386343881031
0.9676000729320775
1.678352014372031
1.7578349360382577
1.8915792362211619
1.870795898790336
1.73185936802056
1.6168114437699506
1.7238973738366141
1.3036546025095659
1.1093584025226468
0.8263861835592604
1.2559639825420024
1.1139434982203977
0.8383058789081417
2.085426356864773
1.9425283315862534
2.002351005302644
2.072956456525511
1.7300283769013287
1.644770208600462
1.4031217604148212
1.451082820427187
1.5951845314084905
0.8490398750479147
1.1587658494338244
2.0604055206089984
0.9124782625355591
0.931537514112632
1.6518620087219642
1.515460290071389
2.0798305775393233
1.3318213456717332
1.018635811851903
2.208086066384597
2.265214952517823
2.325524113319333
2.3556327856842016
1.8273578345400505
2.214864061115235
1.87278082195691
2.3243929220040744
1.7734369948213222
2.2031911934305963
1.222885330623293
2.2572683642180276
0.8107122275851805
1.70423643558891
1.9350533616773422
2.354828020813856
1.7734185313209134
1.6226548972551982
2.13078779074532
0.9547060499047308
1.7061730710415128
1.089975670038631
1.9832636228899487
1.9132877673802606
0.7863648069120195
1.8010457561403777
2.2525359298221397
1.636789510972883
2.35033966133597
1.2398218264769632
0.9903440454733601
1.4601996730590037
2.2956929754238695
1.0273053736558604
2.0126378122380104
2.3511837573194834
2.1507227047641244
1.456935486481054
1.4227391034070138
1.6231725828691979
0.7857185282168607
2.3558396366375893
1.2286228728975146
1.8938450610192323
2.355759175432632
1.6317063454465481
1.9726804314197768
1.4329022481308975
1.2035186339865913
1.7987337232604115
1.699239663963582
0.7993100390092908
1.876335693606789
1.7788135740059257
1.8211220692978833
1.7566496481452207
1.3417627074517007
2.2602386857418275
1.3008977384019076
2.121732126343949
2.1912682431425
1.320671798632238
1.5663390107428765
2.341033641722456
2.31331499707966
1.7352332452087769
0.9066501299969679
1.9443955944668374
0.7861139170843263
1.1381055267227234
0.8678738638286868
1.1847968166062592
1.5335777985536074
2.353260502861494
2.0892381578834645
1.3734331409213199
2.2962489419404926
1.376357822866016
0.7885962967261028
2.21889074162204
0.8085458780036007
1.196668648230259
2.2209062319382364
1.4896150686077974
1.1196004445155903
0.8098445276381353
2.139030019146184
2.323727081533575
1.93511532535295
1.0902334351851037
2.2901579731236956
1.0828906921693684
2.0673470170990322
2.2742269125529524
1.9840823996735164
1.9146905954552815
2.197839732905304
0.7944423681090204
1.25566979558994
1.4694783739495942
0.7895060931069551
1.4559553393874363
1.0325451979166835
1.8481325398804238
0.9878028137070687
1.3001218678242175
1.89082416783537
0.8714409599856477
2.080024433659421
0.7894538136942373
1.8560841512216313
2.0562703719613182
1.1568069781657502
1.1807894639829524
2.35268442727819
2.3558790382906056
1.6687517167856143
1.3376849674763622
1.4211818070595332
2.340112496700062
2.265637884297598
0.8375587341758022
1.2085096531200252
0.9473949066363337
1.4143165563868307
2.313066057468179
1.8546534187012065
2.2939716932125216
2.3027835564856813
1.8017366817984848
0.8500527680724893
0.8445697393715147
1.52617318732727
1.0531487295597366
0.9416787669635539
0.8271306303492324
1.6717662843793557
0.8544553203884684
1.944256744026316
1.6988132325715464
1.5904459280111805
0.8879702926262486
1.6861481458040857
1.472912986223337
2.299789795945866
1.2208983546320464
2.1433033934344476
1.8203248141557336
1.7606856596683778
0.8584443111693207
1.1763412321954487
0.8055569198199122
1.7678477666817944
1.996741316534809
2.2883089863360504
2.193184417848032
1.6631186839434702
2.1001813064341
1.4346629114819736
2.272510459485483
1.6422132549248014
1.6820869723956384
1.569442594722848
1.8150215504803773
1.3216365462520168
1.7546462175688653
0.7867668212542824
1.8799443177058117
1.9345854120831236
1.796129518866155
2.302434637022192
1.600338216387971
2.0180240772523055
1.466476783306634
0.8487628095725559
1.0957268438484014
2.292734835118874
1.4433185829409074
1.8502321711168979
0.79990696590902
1.016894563379734
0.8401490565832278
0.9433024743366519
2.348042824426761
1.1326044835355593
0.8236331056702639
2.0581272208730383
1.3192884814882464
2.2012742956525995
2.092291804793703
1.7950638643483878
2.1119397690776216
1.188805066800063
2.107695808295406
1.6647045173382427
2.201335709976636
1.313289666323964
1.208293609064499
2.0352350641477304
2.3346005374024212
1.4235119540333334
0.7858425718795141
1.5892761738005723
1.7541613718999323
1.465345152010906
1.460528042705772
1.8821177846759067
1.2776672423912276
1.911571544233568
1.9704693064790249
2.0813893589848806
1.6345038123833484
0.8378468219152265
2.175505801025581
1.7401907972378348
1.9074702780940975
0.888331526355669
1.781945813377584
0.8064577477428415
0.8514812410387779
0.9699698092562681
1.6249671825849517
0.7878020605277363
1.522151712278628
1.4228105195318834
0.9911022547882532
1.1631029390960177
1.8818455905895304
1.6908421442771484
0.7978070232177129
1.1232523222221522
2.0051640808175044
1.7827703634407273
2.220732322814479
2.327822923513579
2.0770905790727725
2.350815349146021
2.003149931577158
1.6090551840761993
1.6361716223958573
1.6349780216210603
2.102895393890244
1.0426698757441175
1.7678511332525644
1.7913752072406435
1.996296067070606
0.9056709473144332
1.4673957877065067
1.9777793666938677
1.4958023604733945
1.0708226472552551
1.8536394601442618
1.029658551530465
1.156271219740958
2.3389911795500606
2.355822209919919
2.108831413027296
1.2996497715125193
1.0423616373924671
2.1640767647415324
1.4985389353792387
0.8648629687045106
1.7715736528713417
1.0627149160514846
2.03247101252106
1.0243886080103592
2.2047152390873044
2.2604700024550173
2.3488308171218204
2.019740059571019
2.300182406317775
0.7954472443698439
0.9314983143267349
2.348775718287963
2.13172737444738
2.329866514748234
0.8641605454118138
2.2801598863743044
0.9803996023073029
1.3369279339774445
1.1554481282758116
1.4626012617287456
1.4704695746530603
1.7361838111613996
1.3616579185616173
2.3158445543155914
1.2512639653315636
2.320087455934536
1.2414174286078765
2.262319622261524
2.183513209301288
1.9249909987137233
2.1374166303067548
2.356166757892416
1.8612838046440923
2.3368061180792346
2.351759333310951
2.258639107016539
1.0113334524328217
2.1691712100296656
0.9397373893369034
0.8316683104028337
0.8971716110708532
2.3514178285410585
1.8943727915248036
1.3099062889905027
2.2284483906739827
2.115436435470711
1.8163571390432596
0.8230929880436525
1.6608057681303598
1.4182279547412968
2.2357991511717965
1.5659500055700166
2.160091829987383
2.2727640375864473
0.7855521580240244
0.9133445233159614
1.9381524363156302
2.3429135720750596
2.232324733945991
0.9229939159866282
0.8891489858649603
1.6040084113026596
1.3253811664243653
2.220179909740383
1.7344311015796345
2.3473363449978764
2.351683652484164
1.0163465562673926
2.2962919311083105
1.5296147773868884
2.3013408477232424
1.706347148536569
2.161841814655954
1.1339604274193236
1.250868216990398
0.7915824659974384
2.139001959973481
0.7926015688010692
2.2971529060743467
1.9651812205200994
1.4023814468061795
2.201982138028347
1.9124762280880936
1.834747828102842
2.3106192395361376
1.7812228914387194
1.5769339074532838
0.9437270348354
0.7899370980316555
2.2782462045482643
1.6988976902230217
0.7854714427556336
1.6473306434936228
1.7759651073192446
2.2070700465163173
2.174106402720483
1.4373777743615361
2.277142828572319
1.523555266208382
1.5179481793146101
1.7680399210415267
2.2746074897249073
0.850573723054336
2.082237961211719
1.8664702816559064
1.4879569667416943
2.3335025346872986
1.6076242712370752
1.0786540224277776
2.3558723851718644
1.630854839461883
0.928592462709406
0.9299770104677423
0.9595416088929412
2.12062195876901
1.8687828857828772
0.8219919129929945
2.270195534767053
1.0117650177431463
2.2115120838658275
2.26795956168877
0.8097609068571189
2.223285492162052
1.8932558726071993
1.4359364803507473
2.2740043175626203
1.8341681578367346
1.5088307577783255
1.5505284149648006
1.7660088216908754
2.02943568314399
0.8113433253637549
1.325826615410837
2.2771742820952983
1.5621855710294643
1.621404920084373
0.7855803160005571
1.6034580553865152
1.0532711195520934
1.9696749012407988
1.6426198047437515
1.5882366002907933
2.3491342102865387
2.3541186434336203
1.6740547252929354
2.1350152909554923
1.7269321846923684
1.4469796815403755
2.3365936444678663
1.1429514451891363
1.7351634908410198
1.7299797243157398
1.902158229045637
0.8051578803582914
2.1216428625644834
1.950446549811067
2.344711018836769
0.9361370782984703
1.9271838720014929
0.7871720089812236
2.2069024762001446
1.0049375453225304
2.2204173651603334
2.2373624247024586
1.5748237120998054
2.1886461075530264
2.3100557506125154
1.9042307722864045
1.460667806761721
1.6171786189565505
2.1463993261406453
1.3470637359376927
0.8089926323316469
1.0362399471027421
1.7539198514661658
0.878287721476501
1.4093555365517363
0.7880359372895778
2.055621061430076
2.049812890302097
2.220889185087461
2.0083220446724868
1.8862066629284768
0.7889536930351643
1.8159807542171535
2.0038256210196956
1.3642671019919765
1.4998857855422898
1.6181582443619602
1.5981125072809292
2.124965951038178
1.1171095317065616
0.7880429620219699
2.2963924045684814
2.2064150096811623
0.7872181770774678
1.013952421243185
2.015945207117369
2.3515557972297927
0.8053096197135002
2.2101068576129106
1.7845248752696972
2.1668192687461816
2.293507624227874
1.7722174689188577
1.7910624457346445
0.9943172096546119
2.0288513742809413
1.6888584315449917
0.8411794835162836
2.2973539075752547
1.7563675060044002
1.3877389461557705
0.8869538292722225
2.351783326402566
2.3073219917685988
1.7874150764045091
2.0785690500351244
2.3260378663912498
1.003464901867075
1.4759811451733953
1.653475573229823
2.356127711426014
2.3497285190138255
2.163800735950995
1.7728326017748728
1.339778553261321
1.5228127286467612
1.5232132384998174
1.52297624479832
1.073053697649898
0.9312033176526886
0.7855161963930645
1.608547833461987
2.356133138801419
2.2064522592475533
1.5036046802920737
2.3546211585933974
1.0677498897254318
1.6526932002146073
2.34431810381001
1.8490738495565668
0.9781354396321733
1.1718575548232824
1.1946240540040698
1.881036209474227
2.0642001365901397
1.9602033981903595
1.542837252482865
2.123403436183671
2.092689570980274
2.0712197482903254
1.5222848609504915
1.409746540338899
1.9321738515255145
1.361010277190275
1.3768586343513554
1.1091007003106608
2.3045192784832427
2.2731644374132265
1.0791850326934311
1.3619980754627523
2.3398653815530723
1.802397868477373
2.1391758563705277
1.407118109990545
1.4342717489812877
1.8226734767483959
2.355093237959317
1.8730029237609265
1.2813592418121285
1.2593507886731148
0.8001546385362657
1.2104708035301364
2.1520641543466286
1.7465281696316057
2.1697495131099727
2.2810110404307236
0.834932871425452
1.4229570020562605
1.55825657564017
2.332884337567933
1.9797244675089776
1.2462588181652103
1.7770386329346735
1.9442849618002356
1.0425682516473163
2.069836672008808
2.1486133888498733
0.8516978168912258
1.2335700311893982
1.2231328401157306
2.2842229050019993
0.7900593737990572
1.9412885492280267
0.9814240640671087
1.1990563261252756
1.6817762758290349
1.8599085963647781
2.3353991066795206
1.4750422344371146
2.080476163996535
1.4739341810976847
0.8554090008182492
2.297211461583426
1.841895925549906
2.3556114291737997
2.238448221237362
0.9499448852744558
1.4692952886375723
1.4693674894498896
1.7626277938419943
1.5680273629720218
2.044733567304899
2.0731245345708635
0.9327486942647187
0.9303532103882838
1.0578609522154376
0.9664787560440462
1.0626972394863956
2.263628310258812
2.3560793911999163
1.8246342258597466
1.5356047469391467
2.345320756825592
0.9232437982653745
1.7934219105215314
1.859234395015685
1.4561304154434578
1.9070949378273676
1.2343500987597646
1.3727841717524556
1.7907081880586695
1.0940175564522652
1.1901886959022332
2.3561482171751473
1.7423509287374335
1.783042429202206
0.9364869105800391
2.0949566904717587
0.7868471849088129
1.9845337495574666
1.4192486734573655
1.7651604466306918
1.0355749315131735
2.15577058560434
1.641070302878352
0.8500856537655749
0.7854119247520466
0.9968070642461141
0.8255501827195807
1.3129722653913565
2.003160845390076
2.312088378001654
2.2944579346768808
2.3249516385136393
1.7870851279566942
1.6649081975218831
1.7486881370902843
2.27776935806297
1.9889448003699663
1.2014319229008064
1.9818321684782736
1.9469478921958592
1.6708541662114063
2.2915100760548803
0.9202515029688806
1.3794797331485944
1.9871861019394266
1.9408717042245456
2.003360641292371
2.1815713232606058
1.1373959037256436
1.9332047856125099
0.8318101197106466
1.6383317071620833
2.335203472003435
1.3112571228998753
1.9412193549419015
1.883259199589416
1.4678339039967023
1.0479109959233133
2.033661664696073
1.7231533886895138
2.3561649047632254
2.328853498406256
2.3402114193793007
1.9676475681975225
2.3553740076313336
1.2744479984703243
1.2472350383602293
1.4365795148493314
1.7110563838799981
1.5278513873804809
1.5539669200753903
1.0863805400304807
1.4410041918868546
0.9405984500260014
2.191376932824064
1.0737542178051005
0.9815199878769252
2.2612220078909173
1.3752983610041445
2.356159535559058
0.8243272032435826
1.5173852306101638
1.8351911418910272
0.8048589802578294
0.7855163255924481
2.287886781207145
1.6650509230353756
1.0429209886658881
2.3188299682728317
1.4611435887261939
1.3538967547993155
1.7901161349003816
1.8741922382333698
0.787779690839478
2.3557141798015406
1.0808527606320062
0.8267448127314573
0.9460941221216767
0.8807760133142374
1.4792304936583913
2.3549988256035546
2.2386796206151467
1.360808906297271
1.5333648551834704
2.345964640084036
1.500191565295631
1.534565528343611
1.1932895168445137
1.0807071352741588
0.8210976080169017
0.8870667052211216
1.0581842449836105
2.2379825117937178
1.5593451578399025
1.8770258545656204
0.9696108842534306
1.9114522162156937
1.7476742601032849
1.4931324377616164
2.308881330749324
0.846881392358452
1.5702399721963967
1.0178524259603474
1.3647298503589664
1.1330897351135183
1.688517503380002
2.355980867914878
2.2943741769297588
1.356604137822139
1.3262919413697878
1.4518347034209507
1.8877318626901562
1.3465834998254753
2.036037120525725
1.4662125244149424
1.7020459736403812
0.8432308001318949
0.7902217535032721
1.14523581085657
1.4219418804652255
1.1229384278797707
1.7526539363207732
2.273308121676111
2.2768271434255456
1.1433282195958736
1.3140031591565222
1.1131723808570326
1.7867549760638388
1.0511437068976959
1.2157315629285361
1.1436596633698572
1.3231683395043858
1.8895856465193326
1.6599416819424317
0.9948358717268185
0.8224649594406276
2.0955280294809735
1.2173514448138483
1.543564677060172
0.8266180146182871
2.3399606362283505
1.5288128963300622
1.6545000277660427
1.9350471990732865
0.7854459253585743
1.5303141261017839
1.6955525289307316
2.080733642977847
1.116036328443575
1.502369447660024
1.21061794824947
0.8491936841677039
2.349608249651221
1.827688235635195
1.6729446887987793
1.138442564921226
1.0551035104011315
1.960351533599394
0.7854436857513206
2.048023206329687
1.8223674884176793
1.8456162800081135
2.3541817136943153
2.280031561900216
1.4678949193081732
0.7911678605236077
1.6594596497563037
0.933909237340452
2.2159509488226665
2.3551949378087795
0.954000823272299
2.0560272395334094
1.3045026018076142
1.7013034525928505
2.066252463240204
1.049887643301489
2.1235923423759124
2.2468183144901412
1.1873916462973275
2.2408679184317344
0.9601735881764809
2.348060342399436
2.044840170954275
0.9645892064494237
1.6229080486290537
2.3494119022766733
1.6053269010893778
2.2557372097676343
0.9182495506003754
1.6807942115405652
1.6066819638542833
1.7755527988030946
2.006229329484343
2.218795272468108
SCALARS beta float
LOOKUP_TABLE beta
2.603979849477316
2.1124023931741855
2.945851828750368
2.586024600290464
0.23289568394114205
2.915813495527257
0.9300237568126715
2.464814897716867
0.7956498280808172
1.011292944944715
1.6331981626528502
1.173776665782948
2.778914741643594
2.9041142913877054
0.5996656293002145
0.9854926226564944
1.9826470163122012
2.6625678129187866
2.719279709026978
2.5253332615020208
0.35156949204880794
2.8957763143833133
2.6594499946696506
0.698032758856124
2.913208734383491
1.4153292627894545
1.1262031904209517
2.3521586499117477
0.2987986294288125
1.9424693937471738
1.253532820297128
1.330221970719254
1.1916084680223575
2.616778878861804
0.4237731271900229
1.610880724236676
1.7839347115903998
2.8691512394380863
0.6568721918813017
1.7729649838985542
2.6381783940422383
1.03741254229677
2.8717871830652744
0.5629556311514861
0.48006194139159797
1.3405783685101464
1.1884641760388803
2.6436733590185235
2.7202719679763905
1.7996212095332955
0.29895633181258074
1.2244791055820132
2.272561861067517
2.1164309470505605
1.0740427753838675
2.6278467266760663
0.646543216917101
2.8266185738498586
2.9251422731559034
0.7107563176883679
1.967016134697995
2.9435659911142626
2.4679428113675694
2.2047373541756166