# vtk DataFile Version 4.0 
Unicorn heart vtk output
ASCII
DATASET POLYDATA

POINTS 1000 float 
0.207001 0.254186 -0.00221 
-0.265778 0.103459 -0.079212 
0.112931 0.087671 -0.049275 
0.127129 0.308615 -0.173644 
0.286844 0.220917 0.083476 
0.160763 0.321589 -0.102594 
-0.020429 -0.195275 0.041886 
-0.009859 -0.198319 -0.033599 
0.166482 0.430325 -0.127015 
0.004866 -0.192661 -0.039913 
-0.009025 0.060316 -0.002912 
-0.358749 0.151482 -0.066675 
0.144837 0.30606 -0.115686 
0.054449 0.012961 -0.135764 
-0.278889 0.111432 0.101945 
0.086612 0.192341 0.005031 
0.058719 0.040035 -0.205004 
0.117103 -0.003691 -0.090279 
0.076022 -0.025914 -0.086215 
0.037794 0.17879 -0.192641 
-0.158476 0.078878 0.088296 
0.003924 0.166373 -0.13648 
0.005441 -0.044563 -0.114733 
0.24363 0.200824 0.016843 
0.387924 0.262069 -0.100989 
-0.139278 0.403462 -0.016472 
0.199464 0.220174 0.048763 
0.377298 0.293192 0.019267 
-0.10836 0.133311 0.098838 
-0.070644 0.312973 -0.067839 
-0.050534 0.301422 0.061257 
0.060088 0.259803 0.006638 
0.199262 0.302217 -0.188562 
0.234985 0.283188 -0.148906 
0.095962 0.009224 0.063318 
0.205234 0.171286 0.166102 
0.217095 0.293346 0.002697 
-0.005738 0.091319 -0.143151 
-0.211678 0.318204 0.137892 
0.123021 0.218746 0.007818 
0.351105 0.114898 -0.005065 
0.170076 0.216986 0.132146 
-0.268105 0.249639 -0.02896 
0.034961 0.273431 0.196732 
0.083161 0.26149 0.106117 
0.187345 0.076888 0.053297 
0.26215 0.173036 0.008674 
-0.163458 0.101216 -0.062284 
0.394171 0.260634 0.084988 
0.17376 0.059245 0.008359 
0.075333 0.077436 0.055047 
-0.107121 0.367294 0.145206 
0.200228 0.252838 0.00504 
0.174409 0.182441 0.000833 
-0.055733 -0.131378 0.052434 
-0.007513 -0.060505 -0.005202 
0.082955 0.282394 0.191107 
0.114148 -0.027234 -0.160053 
-0.191065 0.185206 -0.046522 
0.061936 0.351062 0.179485 
0.154232 0.37308 -0.065369 
0.167361 0.164921 -0.085089 
0.004275 -0.170454 -0.075264 
0.105009 0.269587 0.02141 
0.058677 0.042052 -0.19726 
0.294289 0.152135 0.100051 
0.17229 0.22489 -0.010878 
-0.21136 0.089379 0.205153 
-0.23163 0.264509 -0.004102 
-0.195897 0.255257 0.00434 
-0.208936 0.384463 -0.036829 
0.111984 0.118284 0.02177 
0.160686 0.464453 0.089224 
-0.121576 0.351784 -0.067766 
0.053002 -0.000169 0.043197 
0.157309 0.09051 -0.200141 
-0.093764 0.004695 0.088841 
-0.02251 0.041595 0.124714 
-0.287928 0.183226 -0.025317 
-0.208379 0.316448 -0.038921 
-0.208239 0.193078 0.237415 
0.179672 0.392353 -0.075307 
0.009994 -0.059157 0.024704 
-0.024242 0.078411 -0.19076 
-0.098621 0.300109 -0.073363 
-0.075329 0.050268 0.118111 
0.266366 0.292486 -0.103704 
-0.01925 -0.027378 -0.081397 
0.088791 -0.171547 0.122307 
-0.17304 0.412705 -0.109421 
-0.095341 0.045813 0.069361 
-0.321001 0.371504 0.06698 
-0.172549 0.159729 0.000913 
0.246739 0.315907 0.080066 
-0.052615 -0.125458 -0.08048 
0.122192 0.184294 0.012281 
0.31194 0.051557 -0.00598 
-0.150396 0.394583 0.08907 
0.120912 0.142837 -0.059124 
-0.160498 0.152143 0.194394 
0.20654 0.253914 -0.00321 
-0.208671 0.250467 0.005876 
-0.215726 0.124352 -0.104436 
-0.028931 0.093127 0.042919 
0.195359 0.247772 0.193637 
0.006226 0.164546 -0.133292 
0.119912 0.277311 -0.041672 
0.089952 -0.071765 -0.158253 
-0.001392 -0.188145 -0.038046 
0.276068 0.282109 0.073158 
0.264469 0.221349 -0.01502 
-0.008291 -0.078941 -0.044104 
-0.137092 0.199936 -0.209427 
-0.054105 0.344109 0.033922 
0.235497 0.210908 0.063016 
-0.159721 -0.009422 -0.185217 
-0.128565 0.257273 0.098874 
0.295654 0.271976 0.045759 
0.205323 0.034956 -0.000395 
0.171715 0.311887 0.053923 
0.158319 0.474517 0.08821 
-0.122732 0.353738 -0.068351 
0.175965 0.299673 -0.016534 
-0.246348 0.427843 0.066598 
0.244187 0.299144 0.103905 
-0.282196 0.202789 0.075904 
0.252795 0.115462 0.040004 
0.073812 0.108113 -0.064395 
-0.184531 -0.025776 0.17389 
0.162921 0.429652 -0.031968 
0.202944 0.33607 0.026655 
0.070902 0.335944 -0.168447 
0.220149 0.357829 -0.082017 
0.234083 0.170936 0.087326 
-0.138772 0.341746 0.10891 
-0.027048 0.096142 0.031357 
0.238288 0.475365 -0.060762 
-0.029346 0.194292 0.15572 
0.013078 0.219359 0.008698 
-0.169668 0.284281 -0.19334 
0.052775 0.198602 -0.154059 
-0.028557 0.119213 -0.100948 
-0.211866 0.314112 0.123273 
-0.176073 0.216358 0.045189 
-0.063616 0.050036 0.19767 
0.184324 0.378017 -0.063414 
-0.110837 0.227347 -0.060311 
-0.050464 0.333406 -0.170681 
0.094638 0.284592 0.047788 
0.189154 0.352148 -0.084564 
0.001432 -0.051831 -0.138662 
0.082709 0.102282 -0.005473 
-0.249021 0.140104 -0.168636 
0.238025 0.108047 -0.086997 
0.004876 -0.082565 -0.002857 
-0.014495 0.394031 -0.030218 
0.220321 0.325906 -0.031012 
0.245687 0.312469 0.071709 
-0.031623 -0.132665 -0.038759 
0.104235 0.180553 0.023941 
0.123407 0.119715 -0.203658 
0.28044 0.227199 -0.035584 
-0.271344 0.24053 0.048221 
0.223175 -0.043715 -0.071473 
0.109588 0.192976 -0.099714 
0.22671 0.132384 0.057277 
-0.270261 0.34876 -0.069172 
-0.145554 0.248964 0.022792 
0.327877 0.3141 -0.136272 
-0.094117 0.113339 -0.148925 
-0.138521 0.119003 -0.038396 
-0.027139 0.075569 -0.20105 
-0.054907 0.131416 0.126836 
-0.037095 0.191967 -0.117429 
-0.04878 0.023249 -0.139276 
0.225737 0.265363 0.016375 
0.361529 0.377801 -0.061997 
0.093465 0.348255 -0.065741 
-0.047905 0.170225 -0.072418 
-0.29116 0.311601 -0.138549 
0.088834 0.294635 -0.047457 
-0.094809 0.295067 -0.083587 
-0.296369 0.191294 0.048138 
0.146389 0.087261 0.016016 
0.090701 -0.168957 -0.134306 
0.060456 0.014878 -0.126331 
0.239789 0.220144 -0.054801 
-0.174802 0.279916 0.195528 
-0.250039 0.232838 -0.10912 
-0.250602 0.157569 0.094337 
-0.244111 0.399178 -0.081663 
0.093386 0.24979 -0.01784 
0.308234 0.058534 -0.143088 
0.179718 0.374252 0.106358 
0.140401 0.292858 0.040741 
0.2046 0.171568 -0.207467 
-0.297724 0.238482 -0.052916 
0.296399 0.160557 -0.069323 
-0.15166 0.267017 0.060675 
0.190756 0.373196 0.172387 
0.016866 -0.216114 0.048938 
0.037019 -0.15287 0.004583 
0.222831 -0.033101 0.024843 
-0.031102 0.012269 -0.014131 
-0.277214 0.203704 0.066911 
0.181144 0.003963 -0.068353 
0.024262 0.039171 -0.069759 
0.039352 -0.244699 0.10853 
-0.287432 0.237427 -0.09509 
-0.001558 -0.16252 -0.023172 
0.140939 0.376276 -0.198753 
-0.005861 -0.217166 0.015994 
-0.193303 0.306413 -0.003829 
0.08149 0.136729 -0.13686 
-0.106989 0.27138 -0.022125 
-0.087093 -0.241345 -0.040989 
-0.098488 0.256425 0.132851 
-0.041406 0.103945 -0.062781 
-0.276895 0.021749 0.076236 
0.203703 0.326742 -0.029638 
-0.208737 0.250004 0.005176 
0.126533 0.32847 -0.134615 
-0.002532 -0.116004 0.014104 
-0.291948 0.17825 -0.15488 
-0.176335 0.390637 -0.042824 
-0.253327 0.207129 0.039038 
-0.232063 -0.042957 0.086649 
-0.053596 0.06276 0.117697 
-0.292747 0.21175 -0.040292 
-0.293639 0.285547 0.034209 
0.172688 0.254996 -0.030928 
0.081739 0.20054 -0.261508 
-0.263046 0.28544 -0.014383 
0.057924 0.247509 0.040588 
-0.042838 0.247174 0.193076 
-0.193918 0.142946 -0.016186 
-0.079162 -0.034696 -0.081427 
0.117262 0.273801 0.151415 
-0.106809 0.265132 -0.05732 
-0.271398 0.230222 0.176446 
0.146548 0.426328 -0.008444 
0.210636 0.160375 0.008621 
-0.264698 0.344867 0.16687 
-0.054136 -0.010484 -0.097622 
0.086023 0.047532 0.001936 
0.231212 0.130466 -0.11333 
0.182997 0.138636 -0.008861 
-0.008616 0.136667 -0.22998 
-0.138138 0.049703 0.126242 
-0.197566 0.252963 -0.051403 
-0.373168 0.215525 0.097077 
-0.191954 0.358135 0.002501 
0.281384 0.209399 -0.048405 
0.192428 0.08465 -0.12373 
-0.052627 0.038109 -0.030644 
-0.008464 0.396736 -0.090831 
0.11736 0.224074 0.122872 
0.00571 -0.167162 0.031008 
0.304866 0.316093 -0.158709 
0.008284 0.055789 0.121855 
-0.109558 -0.007381 -0.056142 
0.223808 0.28512 0.130392 
-0.122052 0.161182 -0.077037 
-0.089707 0.421059 -0.067799 
0.210709 0.037407 0.091314 
-0.097914 0.096233 -0.109414 
0.219959 0.405079 0.163441 
0.208407 0.149558 -0.10229 
-0.134635 0.332472 -0.022363 
0.042383 0.22159 0.163851 
-0.110156 0.277291 0.034223 
0.085686 0.287701 0.211093 
-0.189004 0.2363 0.115063 
0.148252 0.259264 -0.014691 
0.31229 0.184076 0.130512 
-0.163241 0.304525 0.153684 
0.116643 0.008632 0.043708 
-0.240926 0.295884 -0.125562 
0.159657 0.258033 0.008196 
0.363918 0.104129 -0.013997 
0.101962 0.336806 -0.007653 
-0.08948 0.108505 -0.046916 
0.287992 0.00738 -0.051263 
0.056049 0.199794 -0.116957 
0.083572 0.285738 0.101066 
-0.252851 0.346816 -0.003398 
0.021972 -0.022518 -0.008888 
-0.335484 0.019339 0.019114 
-0.10454 -0.053573 0.09106 
-0.091831 0.284943 -0.089005 
-0.174854 -0.068081 -0.022008 
0.180082 0.339219 0.089108 
0.269827 0.167671 0.063834 
0.265822 0.170397 0.005945 
-0.183699 0.12257 -0.021808 
-0.130606 0.126332 -0.192885 
-0.042034 -0.11748 0.064529 
0.195263 0.304285 -0.003328 
0.226492 0.3159 -0.193813 
0.117761 0.127292 0.10603 
0.093363 0.349425 -0.010925 
-0.315632 0.243191 0.102453 
0.094822 0.204415 0.010972 
-0.253467 0.080758 0.148885 
-0.251164 0.367096 0.07556 
-0.059627 0.2312 -0.069214 
-0.161294 0.145725 0.205373 
0.179558 0.358743 0.056451 
0.194823 0.098025 -0.036324 
0.077956 0.340622 0.035227 
-0.05499 0.035939 -0.037741 
-0.017795 -0.132736 -0.194604 
-0.262028 0.28897 0.017524 
-0.234742 0.305192 0.030364 
-0.141452 -0.05556 -0.149448 
-0.264271 0.144101 -0.072829 
0.257921 0.238683 -0.082536 
-0.121642 0.236195 -0.163891 
-0.075414 0.160105 -0.063702 
-0.315788 0.057879 0.002205 
0.251043 0.100661 -0.050616 
0.060093 0.017059 -0.000351 
0.237949 0.319381 0.173138 
0.144763 0.362404 0.099962 
0.075293 0.229174 -0.117554 
-0.091805 -0.030709 0.017603 
0.043205 -0.007943 0.007397 
-0.064399 0.379416 -0.145636 
0.277983 0.230011 0.021119 
0.244153 0.296673 -0.023574 
0.286641 0.396923 0.115595 
0.169185 0.38461 0.07825 
0.181141 0.265453 -0.098113 
-0.090316 0.310718 -0.13551 
0.147034 0.278498 0.019614 
-0.210245 0.30601 -0.18959 
-0.038431 0.039688 -0.158149 
-0.153574 0.268447 0.005335 
-0.095132 -0.071664 -0.18211 
0.015129 0.126593 0.159927 
0.203343 0.173435 0.12199 
-0.037783 0.328731 0.143867 
-0.024217 0.034665 0.045135 
[...]
POINT_DATA 1000
SCALARS alpha float
LOOKUP_TABLE alpha
1.3503473118487446
2.311869837300537
1.6388398528235575
1.206580638326842
1.5421332523645004
1.3656840139027113
2.19530337081637
2.1574757304301566
0.9023832896507163
2.191848786453696
2.3509719300275815
2.3470438332637125
1.409443818708849
1.7599259939190797
1.9711385844077094
0.8771003928218772
1.7120400782936338
1.9607499529687271
2.0451589189154795
1.4501987650481258
1.782594089903538
1.553951735870385
1.8596038283914234
1.85564512855493
1.5859228867485946
0.8107054230410217
1.6924834218326228
1.1189947711672503
1.6422493738152781
0.7883537370572873
0.8340901623796162
1.8172486585080876
1.29086354917442
1.3850372859652675
1.7010600538756033
1.5621684506339122
0.7855301150755132
1.645880004134363
1.3757841552312726
0.8294325844080798
2.3281377246998685
1.6780018478666485
1.4003477952747858
1.2440683256119875
1.2056534336304086
2.1021325593264115
2.3561643651320585
2.0599813420489634
0.8440448732726772
2.354538572480388
1.6808084717324154
0.9819083552939408
2.279427743582361
2.3559957482999647
2.2551464896249565
1.9726121255204583
1.2322708866785634
2.0231551569156654
1.5983442759916535
0.9308204689595254
0.8895451861673435
1.542303176595823
2.045765010242091
2.127108032533611
1.7858246284395716
2.3501419764206
2.3529226413721136
1.814558903700514
0.7935104308789719
1.3231910104082114
0.7854311884527375
1.7686338414501477
0.8131799751802573
0.8451509852191829
2.115843389749924
1.8449000584497763
1.862998231738735
1.7255326097613775
2.28407143748974
1.0012411090940452
1.6884700661735585
0.8872212960203096
2.0421264785518107
1.763127401944021
0.8697340414572906
1.7261630377959405
1.3531534901112419
1.986706697206116
2.341889660950391
0.7908541576353902
1.806426399935417
0.9339212550435425
2.3331289140749245
1.267990116021494
2.050327348981249
0.7969687684652575
2.3341072229241666
0.9049285009739514
1.6228202223018107
1.6021779836342271
1.4527255487867001
1.9023855975308528
1.8839192297904621
1.7775929403396864
1.7259992250576266
1.3935292776323611
1.0260006123958534
1.8411175577977068
2.1732236644698415
1.3372849691400233
2.1920849282713846
1.9656509428370523
1.6220029106750615
0.8061196166872309
1.8779213229118021
2.0013122594402986
1.5218370584003438
1.0465981112787948
2.2888549225574732
1.1642929312596795
1.1736482787778755
0.8338421432546037
2.351026947065143
0.8504245666190916
1.3975203286596332
1.6158346602626166
2.347712668766825
1.711094722521424
1.9035778682828024
0.8497204325254518
0.9314099068263553
1.1257847385931046
1.1628236264619571
1.9126017097886632
1.2262498582586563
1.6443360488545458
0.8422843313631923
1.5037535328142095
0.7897045047317017
1.6000771708957775
1.5989961796423604
1.6808222507364332
1.290913774220996
1.4820593229495567
1.705329724912981
0.9564164808264213
1.5108164411059208
0.9625394150319843
0.7942446438276204
1.1030234687804992
1.7779892369076649
2.337506821808967
1.8914350008916145
1.9222950995386723
2.226966747668088
0.7860840091359576
2.294953398775171
1.2393337984299515
2.3030231300765958
2.1914879546353565
1.4958071885698594
1.8382676579351418
1.6451929995865469
2.2177154866686517
1.484066547583197
1.9593232284121687
0.8858148835285696
0.9105595917497752
1.359644792336659
1.711853346147179
1.7450313919220153
1.9183780783966835
1.7066963003226558
1.6039010801725608
1.642802030814522
1.2787512270844446
0.9625022311632893
0.8258786480371042
1.4157776405687408
1.1994800225182725
0.8111713571580661
1.1087706408032745
2.1557699497973974
1.9666671377937495
2.083201185698923
1.7969039990159765
1.5142010528296201
1.4368117373401668
1.0008588347037655
1.7494891931933796
0.7880506788970517
1.1203139259269055
2.020791166152455
0.8397366032968804
1.1399552866762508
1.703980616937037
1.5689377224268837
2.0665220179333477
1.3475690864057106
1.2677949080755988
2.239203395095025
2.2556576918299682
2.3463590627075144
2.354899719579825
1.814178718500714
2.2310010239334344
1.887035747859634
2.255208461052952
1.6713663678368236
1.0033773457505064
1.23596736594767
2.266626149634119
0.7986955518319936
1.6726939124480245
2.0282744409517033
2.3467359114778867
1.3666480502002292
1.6042962837388963
2.2163428407218704
0.9670411022992549
2.17161942381846
1.1485174094587693
2.057700343688368
1.7833708900663425
0.7963141757515098
1.752519388496072
2.226487048612234
1.6620004754163038
1.9121699808094061
1.1822587128675877
0.8973473393831856
1.5170670083450781
0.7854499150871213
1.1808446719210504
1.45391280961793
2.3396396532523442
2.098893848371654
1.464467638337854
1.4430442975811766
1.6882224535723405
0.792050869964904
2.243568208227848
1.2704378639540603
1.9397991617753205
2.3560240358222555
1.8028954396251162
1.9958925914620351
1.4447908033215187
1.9571333647371754
1.6956561032764346
1.601937674494332
0.7863411669066717
1.8748137983421178
1.6772088830207288
1.81853113646355
0.7899509025034255
1.3815609058542233
2.2543402882923944
1.3033423608921464
1.7129282738115608
2.1411397784084785
1.303401363937854
1.6068854672957762
2.3465440171609937
0.9119331579518722
1.5754896856749285
0.8306668971012822
1.6726648967738147
0.7854057721466721
1.0982932925994509
0.8650034230360522
1.273515183356511
1.5022136009376967
2.2525343997481433
2.102366492827175
1.3762940411307176
2.147373562274405
1.1559713776282656
0.7896112755972037
2.176807487038314
0.797683556791309
1.7906475072810282
2.14643859705651
1.4611193803242861
1.1860547240371555
0.8002871950014472
2.1230070874397478
2.2050119610449546
2.054652399102031
1.0959452376655643
2.3561567323943016
1.1357803510905105
2.075178125105718
2.2758854037873086
2.157032241832656
1.625340117782096
2.130322326328058
0.7949260586979302
1.3203857854896912
1.5500565082745719
0.7938130338894476
1.4201273548092774
0.9099315914490588
1.7486447362372082
0.9973515391484256
1.3012577123151272
1.8484254651845655
0.9006092440121477
2.050173532682446
0.791970286192355
1.929931648845884
2.2111302310068863
0.9210860590695442
1.2224074973028485
2.169718646613211
2.1896473404507457
1.6073952196923733
1.4415075512685398
1.2490083161517886
2.3445977015798607
0.8585627712477841
2.245802469343702
1.1373297403913676
0.8990842567260324
1.4590405409350027
2.2958266581358284
1.9095463203818202
1.7122554382428878
1.3111943736407916
1.3099748489718568
0.8598414605501644
0.8236783948310622
1.4719966339580297
1.0522857543665345
0.9504151235596601
1.7646892538898138
1.5524902471892963
0.7929179786940795
2.2752649263834583
1.6880397959473394
1.7254358551625624
2.082338503359476
1.6623026249354618
1.43482183452587
2.3431682570904875
1.679905386684788
1.3601619578103084
1.7370273290346019
1.7823026114559355
0.9437877047304155
1.1923116832445766
1.1153622231334348
1.8151448213603165
1.9954099736154813
2.3374167728826465
2.157881577116982
1.4831979424676955
2.1591832070422146
1.379036270514247
2.309890128984268
1.7472099317585499
1.634960714378632
1.5578325296629043
1.55159513621351
1.31151497941143
1.3200687401456193
0.7858387145080415
1.7115758257886216
1.9373566489611773
1.8270499396185476
2.3475496883076197
1.4305953242008151
2.0170552992176534
1.38805299218832
1.0467209447725891
1.1110336365525622
2.179921845623233
1.6810269337002484
1.7153391870301842
0.7862951063804098
1.0137609614537002
0.8866109031172351
0.9389270309114423
2.2679064947338934
1.1479638682504827
0.7932775328310459
2.017855294113263
1.2951633685701045
2.137505665769235
2.231904283081959
1.7500958665248538
2.1746923992237464
1.1569798809555527
2.172358353715763
1.7006777455923012
2.182896628906785
1.3073843304911081
1.2753239868811999
1.9705272125889073
2.3531231459545925
1.423245644099292
0.802085635921018
1.6618742950399072
1.7870486897571851
1.4821909445543706
1.2871875737546439
1.8987506729319266
1.3030427330453065
1.8893936497532717
2.096775373569964
2.061628235601731
1.558108212118616
0.8494005513783589
2.2330277970787926
1.9368904540421086
1.9643015591624546
0.905779122350634
1.7731633916738212
0.8903876293428064
0.9037822680106045
0.9613402142325086
2.354433004694411
0.785953234801761
1.4886950179715015
1.4652692167100152
0.9976787255348432
1.1437327246569664
1.9225049610445568
1.5091130945448707
0.9023238867541657
1.1899677865433227
2.0121022024340127
1.7625295140229187
2.238477273876315
2.3486161866587905
2.078535418597569
2.346284523595833
1.9904898516252114
1.6806332062200473
1.6133068838401479
1.652809402566876
2.135405711795152
1.0326117192820223
1.9006380447468205
1.8039529660968827
1.9037941389272335
0.9562035932583082
1.4507129917773498
1.9799728059628956
0.9224996605039136
0.8638177924174257
1.755310706458029
1.1659276356725112
1.1297432711342408
2.341003501558826
2.330344373057951
2.1592984675773867
1.2768852939178637
0.8395768383645498
2.269331845069369
1.4445478794251556
0.7936084527664721
1.6784232068110205
1.0358306773196198
2.045872325098701
1.0405095634104187
2.25167773084842
2.1384485200013756
2.348490976486223
1.9450477773554862
2.332514494300066
0.8052793043313822
1.1948050875880942
2.3475526286440624
2.1341120774692803
2.354624834730842
0.8621592770278785
2.293189261799735
0.9927989560265644
1.5112996602143778
0.8949880157519915
1.5011539050894693
1.6452789453295666
1.687612048323051
1.3744182349928413
2.3561472488075017
1.4517758152120417
2.356144549276572
1.20250420323563
0.8796938918913497
2.2360786957279863
1.8151222373574263
1.9738726415071066
2.3561703216999845
1.8523208952467056
2.2729087701373363
2.3554413326451145
2.200429561358943
0.9908898808722437
2.158557477302746
0.8454223080469631
0.8063167424416162
0.9008003913022357
2.336337126553279
1.8994905323202578
1.1883263273046445
2.3096722660967437
1.9517999029189785
1.522977510802856
0.7946150713783511
1.685776033847957
1.1261180308217684
1.9148695986880884
1.5762096092743059
2.12462301906838
0.8985207220305066
0.7898903459922472
0.8470337992746089
1.9372936713586693
0.8201071270747636
1.9541643490472898
0.8289226501657485
0.9054415213177809
1.6006808490067144
1.323784081629316
2.295908963705318
1.7212034132552652
2.0647667118554933
2.0887976940146182
0.8671609266351102
2.353716627623865
1.4009417832652031
2.3103434798186315
1.689269035600581
2.257767597239698
0.851738899404055
1.325849754901303
0.8544558622665653
2.1380061032152757
1.0050203974587086
2.1510816585490584
2.1221111621026822
1.381366735597866
2.212363739471776
1.9980117042024863
1.827890190811475
2.3005880154823743
1.9183086122369406
1.530753877364589
0.9206798196371128
0.7912392319434638
2.1069053399940816
1.50879636199434
0.786174354041772
1.5876223352467371
1.8354900730267465
2.3056632309760263
2.158434419905146
1.515215674539963
2.2854166009062524
1.3984712938570403
1.49715424217595
1.841101744144168
2.2415587218727553
0.910574052707764
2.1098756088103916
1.9031719841973311
1.428212103756878
2.2859740895948604
1.6100421033710448
1.5969219822424416
2.35563843812152
1.7180733025822148
0.921107885861454
0.8510123485329854
1.040303649375227
2.141872483292037
1.8965245233870063
0.8173786288534208
0.7928367953690566
1.0501318185172897
2.2307901364040554
2.2740279511391033
1.5603511639403393
2.220808339011394
1.9329891692113517
1.4433556775655771
2.2911212703434924
1.587631515855975
1.5531029998567945
1.5380495849577664
1.8243582792576927
1.9632932065297344
2.3223311487720517
1.3497346500794825
2.2644079602834584
1.5527717631308968
1.601692392181162
0.7867253007934636
1.6573363890371624
1.0821167759939658
1.9024722522161936
1.5363060495031218
1.633217439823973
0.7853996771946079
2.3457491716142966
1.7053445301649117
2.096529751624425
1.7320093268007117
1.6384555824446951
2.3560539055890275
0.9443751246033385
1.7094272413910603
1.8448462119509437
1.9192520040451384
0.8204434296542849
2.111648103866369
1.1912349520281007
2.296972826893594
0.9481608333199132
1.9734488328074242
0.7871868284377046
2.201232262371906
1.1564229121272083
2.2562888043143836
2.2787739160003286
1.5886569377008
2.1952314759456866
2.2890737304604167
1.905751135378565
1.4744625976127659
1.6473268623911594
2.1581378939715483
1.470993952646613
0.8376528534905836
1.1280009272346234
1.2812729592349892
0.9000299329263999
1.340539629284566
0.8020816292695809
1.1634959179300144
2.0075604928836976
1.7983331709649106
2.0702009188941557
1.797116722158084
0.7854415328065403
1.7039973133485986
1.4803387099895449
1.4439276052807861
1.5630285192259985
1.503058451993181
1.6716137990113524
1.8839917778078765
0.9495810079699623
0.7867252072714301
2.3404637520787888
2.0839968404316225
0.7853999502723166
1.0177301315583835
2.229768869293468
1.9830543393387978
0.8085070737323622
1.9032511862141124
1.7176032246279969
2.255177433475943
2.2514540852246983
2.074828954119388
1.632485605140731
0.7862592145414745
2.0490384673532875
1.7070232405324237
0.8496675801708004
2.233082343623915
1.8011803567987374
1.0030861107496218
0.8746304072781993
2.2180037247435997
2.3360653073992914
1.7101016260345485
2.208453405537429
2.345000397416912
0.983504536520909
1.4241667345584212
1.6602337362049526
0.8060578852569448
2.352815856280306
2.199041536906376
1.7682687085134194
0.9008583479191559
1.6461080836696782
1.4991090287370799
1.5341875814010768
1.5894261149786992
2.003313802291559
0.7856264196935195
1.625924907800031
2.350932138779684
2.2112793885139337
1.4051612434256546
2.26182010153418
0.8534758001977566
1.7718041328533658
2.3093421516690036
1.802564189439647
1.082466607666565
1.0615581380595416
1.2525946844818907
1.926934011866435
2.0774142231139128
1.8864574160332783
1.5102076626762047
1.4995310442150336
1.94207937936271
2.056791412971533
1.4648233108103272
1.4818565045569447
1.8275899095148478
1.4081169435455312
1.1281211564434224
1.2189117870413744
2.286513632361188
2.299996425463075
0.8712946993422296
1.386709182792986
2.350828245829323
1.9214732689518184
2.1351768192392044
1.524238709579338
1.4164198114063544
1.785420065064385
2.354125706704068
1.898615260151413
1.2240906810142715
1.206576492368622
0.8086613710039147
1.3043227200337586
1.8552247058252556
1.7552365263364755
1.7688715169711644
2.289150197347778
0.8002095308419378
1.2878589418937323
1.18863079274382
2.327513377936318
1.2039790707605873
1.1963362392530983
1.5363686599426714
1.9795833606094349
1.025000220254719
2.089585906983414
2.2063358803798256
0.7908083053935234
1.188046663284525
1.3011501401388477
2.2775913182880525
0.7856640379490984
1.8227235957370869
1.0489148343511414
1.3234662428937147
1.6833117487912357
1.8547750735629296
1.5726282815054902
1.617243107872208
2.118389376383594
1.3479224562533607
0.8560030104543076
2.297562056489854
1.8027426848982273
2.340592131860311
2.169018273724548
0.9065756906924531
1.1821073278989807
1.610202262364349
1.7628927246368733
1.6108617911331728
2.0439590036957775
2.1318107024991026
0.9271960372192516
0.9675551761288427
0.9643899300460613
0.8775403506614683
1.0609812653008923
2.3561706941184184
2.2205598907642963
1.8379037847037254
1.6659727432218028
2.321874125380781
0.9520109424038707
1.7012827854582018
1.8472628548196504
1.4263818814124518
1.7447498939498194
1.2108882977361375
1.2996345573676076
1.6387741728235372
1.0332545411288998
1.2283052814980053
2.353202551365681
1.7961123446819718
1.7736074832964335
0.9792863339766253
2.224504071320805
0.8504868230594981
2.0063731495359973
1.468392746591806
1.5099423561842273
1.0604962892625465
2.076752418136887
1.7543179412217962
1.2274043035134061
0.8336001712904619
0.9433253468822513
0.8137405443971878
1.298623839667218
1.8136203920256402
2.3407629636611427
2.199446658311346
2.140581050088409
1.6256013778568092
1.716686857206859
1.3896104357126966
2.300034919310118
2.219918392537432
1.2444640213856166
2.072463404627965
1.3286026654727254
1.6819965160012058
2.265613845086585
1.0724822163518757
1.2747657838368964
1.9963555656644463
1.971193158271487
2.0290954768529983
2.095750337230109
1.1854296464176157
1.9551438149160283
1.6639045933893493
1.6842603144440467
2.341040629300076
1.3642891109185424
1.9616071587611943
1.8347351012588857
1.4344885977772688
1.0629619752676647
1.6413727738823858
1.6898074713107325
2.3299929873714373
2.334805456860988
2.332445775630543
1.9721833015525219
2.352097214693143
1.3335114986745062
1.1927035111310214
1.7901884452547887
1.8161629700032185
1.6074137100288626
1.5862484776080796
1.0873540192287074
1.6598604572815163
1.0299845659597882
2.193881420960924
1.1241130133553707
2.188202093029705
2.261497142645932
1.3986438675057997
0.7987150142346393
0.8105234039863501
1.5765655798509108
1.8185542175985552
0.7855903497595944
0.7879033155735884
2.3561298464040723
1.749525625525483
0.7855328437354501
2.234418132998793
1.479150115712987
1.3211876117877852
2.066911439050447
1.9124070350799962
0.7953142047153346
2.32548409403671
1.0019410550912933
0.8732466249473024
0.7904717502008483
0.8624048904983498
1.4761986884090246
2.1545755909763176
2.2630832432642136
1.3424256033181032
1.4926207186686848
2.3051951620045608
1.5271990129493127
1.5973360890071189
1.2536476020588987
1.1959578521523269
1.0730119887596865
0.8745295777493971
0.8923868454689537
2.286565500052433
1.5156498142927046
1.6084192109666449
0.9090373097510421
2.2140744290010397
1.3528379418508911
1.484553900528082
2.287155637812202
0.9324690960024064
1.5199532492805385
1.0268402594647803
1.411668486219561
1.2261970818033938
1.4962300018747958
2.3561511503857786
2.26265175737958
1.3073145611299501
1.0715526104455577
1.423006559816731
1.7433060152547752
0.9594888251571941
2.0803172542964306
1.5632211387970922
1.637358435963155
0.9789387429341505
0.789208082872525
1.3535581101414695
1.3722723698751196
1.7812457934585426
1.8742563048581846
2.2789586736894596
2.3018404755318636
1.1301350243453727
1.5800679718908277
0.9715016286947096
1.8903895121139056
1.1055767199190352
1.1487885506045126
1.1309462713092744
1.0775116616179352
1.7472807628066933
1.7006833984163439
0.9516531302779042
0.7887526373299231
2.0180444421019317
1.2515524717565327
1.5206336906371907
0.8185041273427982
2.3412294582970143
1.4964905707024496
1.631663368491037
1.8744171941746697
2.1040229407745117
1.5487776605917565
1.7192717444938361
2.009071700430804
1.1215922529214344
1.4555394717657353
1.2842851455419102
0.860850481505198
2.3393715182369585
1.7185186648397555
1.7803784880298341
1.4882912764535001
2.0638643021829037
1.3999562568877033
0.792683828521785
2.0163688246603226
1.8995970389471433
1.8098463179121898
2.3493438733445635
2.250744465860683
1.7573748440941888
0.7890696489924804
1.6590100222943662
0.9204014159663021
1.8691353642505468
2.351200526307906
0.9342805967866195
2.117828532334973
1.1930126202316353
1.6491640850551446
2.123971684729564
1.295290829985791
0.8045520801054443
2.2225399727745336
1.3132748358913524
0.9827360507990597
0.9577646932573963
2.2693445838988913
1.9375430373457219
0.9023097011837113
1.470257998553912
2.3554042757073077
1.5985840088402659
2.2391315827748324
0.7888202200900803
1.6442862829693703
1.7136282099842863
1.6834695645614879
2.220137311649474
0.785621909604878
SCALARS beta float
LOOKUP_TABLE beta
2.034873835193089
1.9857487312624493
3.0336366999185387
2.720312691993347
0.20561084657793063
2.8466773611517993
0.9814295118501963
2.389337279597839
2.2005200988661207
2.3404825614271134
1.6588353632164659
1.430434460109558
2.709449680976312
2.817178712343649
0.5277057735464424
1.0157115418076268
2.9123962351905712
2.6853040189584187
2.5930028468566007
2.990580287260541
0.2293686761981563
3.041466056869571
2.81098143967246
0.4278409671782973
3.1128816189457837
1.344827825514786
0.2281676893886299
2.154284366603907
0.11591168070482497
1.6715169992170238
1.1648141827486573
1.777443646456521
2.161010123573541
2.719269251711906
0.1386619332016816
0.2878906082663535
1.5528842804787055
2.7663297303734002
0.2716127241279939
1.7803780349729987
1.7671745185352972
0.1791508249204814
2.8702092397377097
0.42729787776697786
0.41490479217617415
0.8296055089733603
1.5643042726509884
2.5799823342881165
1.6835791779316276
1.624050714554063
0.13772169755291144
0.7945980601941894
1.667942025867052
1.591747799484918
1.0611793953704223
2.6632597756545646
0.35980618217684446
2.3286931228809062
3.1131906784260623
0.8407201790512737
2.0249163175618197
3.0364722994951836
2.596633367001453